[Molden Format]
[Atoms] Angs
 o       1                    8  0.000000000000e+00  0.000000000000e+00 -1.182719810000e+00
 c       2                    6  0.000000000000e+00 -1.118914500000e+00 -3.481861200000e-01
 c       3                    6  0.000000000000e+00 -7.235208500000e-01  9.735914500000e-01
 c       4                    6 -0.000000000000e+00  7.235208500000e-01  9.735914500000e-01
 c       5                    6 -0.000000000000e+00  1.118914500000e+00 -3.481861200000e-01
 h       6                    1  0.000000000000e+00 -2.069619570000e+00 -8.717612200000e-01
 h       7                    1  0.000000000000e+00 -1.356230790000e+00  1.855927480000e+00
 h       8                    1 -0.000000000000e+00  1.356230790000e+00  1.855927480000e+00
 h       9                    1 -0.000000000000e+00  2.069619570000e+00 -8.717612200000e-01
[GTO]
1
 s           5
      2.266176778500e+03     -5.389350392174e-03
      3.408701019100e+02     -4.023472138896e-02
      7.736313516700e+01     -1.800818420553e-01
      2.147964494000e+01     -4.682885765765e-01
      6.658943312400e+00     -4.469261716019e-01
 s           1
      8.097597566800e-01      1.000000000000e+00
 s           1
      2.553077223400e-01      1.000000000000e+00
 p           3
      1.772150431700e+01      6.263024876316e-02
      3.863550544000e+00      3.333113848235e-01
      1.048092088300e+00      7.414863830812e-01
 p           1
      2.764154441100e-01      1.000000000000e+00
 d           1
      1.200000000000e+00      1.000000000000e+00

2
 s           5
      1.238401693800e+03      5.517365048110e-03
      1.862900499200e+02      4.108882855595e-02
      4.225117634600e+01      1.822538212649e-01
      1.167655793200e+01      4.682845943743e-01
      3.593050648200e+00      4.457581733600e-01
 s           1
      4.024514736300e-01      1.000000000000e+00
 s           1
      1.309018266800e-01      1.000000000000e+00
 p           3
      9.468097062100e+00      5.688833201104e-02
      2.010354514200e+00      3.129405933647e-01
      5.477100470700e-01      7.606501650914e-01
 p           1
      1.526861379500e-01      1.000000000000e+00
 d           1
      8.000000000000e-01      1.000000000000e+00

3
 s           5
      1.238401693800e+03      5.517365048110e-03
      1.862900499200e+02      4.108882855595e-02
      4.225117634600e+01      1.822538212649e-01
      1.167655793200e+01      4.682845943743e-01
      3.593050648200e+00      4.457581733600e-01
 s           1
      4.024514736300e-01      1.000000000000e+00
 s           1
      1.309018266800e-01      1.000000000000e+00
 p           3
      9.468097062100e+00      5.688833201104e-02
      2.010354514200e+00      3.129405933647e-01
      5.477100470700e-01      7.606501650914e-01
 p           1
      1.526861379500e-01      1.000000000000e+00
 d           1
      8.000000000000e-01      1.000000000000e+00

4
 s           5
      1.238401693800e+03      5.517365048110e-03
      1.862900499200e+02      4.108882855595e-02
      4.225117634600e+01      1.822538212649e-01
      1.167655793200e+01      4.682845943743e-01
      3.593050648200e+00      4.457581733600e-01
 s           1
      4.024514736300e-01      1.000000000000e+00
 s           1
      1.309018266800e-01      1.000000000000e+00
 p           3
      9.468097062100e+00      5.688833201104e-02
      2.010354514200e+00      3.129405933647e-01
      5.477100470700e-01      7.606501650914e-01
 p           1
      1.526861379500e-01      1.000000000000e+00
 d           1
      8.000000000000e-01      1.000000000000e+00

5
 s           5
      1.238401693800e+03      5.517365048110e-03
      1.862900499200e+02      4.108882855595e-02
      4.225117634600e+01      1.822538212649e-01
      1.167655793200e+01      4.682845943743e-01
      3.593050648200e+00      4.457581733600e-01
 s           1
      4.024514736300e-01      1.000000000000e+00
 s           1
      1.309018266800e-01      1.000000000000e+00
 p           3
      9.468097062100e+00      5.688833201104e-02
      2.010354514200e+00      3.129405933647e-01
      5.477100470700e-01      7.606501650914e-01
 p           1
      1.526861379500e-01      1.000000000000e+00
 d           1
      8.000000000000e-01      1.000000000000e+00

6
 s           3
      1.301070100000e+01      3.348548481299e-02
      1.962257200000e+00      2.347218708812e-01
      4.445379600000e-01      8.137702852596e-01
 s           1
      1.219496200000e-01      1.000000000000e+00
 p           1
      8.000000000000e-01      1.000000000000e+00

7
 s           3
      1.301070100000e+01      3.348548481299e-02
      1.962257200000e+00      2.347218708812e-01
      4.445379600000e-01      8.137702852596e-01
 s           1
      1.219496200000e-01      1.000000000000e+00
 p           1
      8.000000000000e-01      1.000000000000e+00

8
 s           3
      1.301070100000e+01      3.348548481299e-02
      1.962257200000e+00      2.347218708812e-01
      4.445379600000e-01      8.137702852596e-01
 s           1
      1.219496200000e-01      1.000000000000e+00
 p           1
      8.000000000000e-01      1.000000000000e+00

9
 s           3
      1.301070100000e+01      3.348548481299e-02
      1.962257200000e+00      2.347218708812e-01
      4.445379600000e-01      8.137702852596e-01
 s           1
      1.219496200000e-01      1.000000000000e+00
 p           1
      8.000000000000e-01      1.000000000000e+00


[5D]
[7F]
[9G]
[MO]
 Ene=    0.307537
 Spin= Alpha
 Sym= 0->0
 Occup=     0.917574
   1     0.0000000000021868
   2     0.0000000000002406
   3    -0.0000000000099637
   4    -0.0001976588823741
   5    -0.0055298987555411
   6    -0.0000000000083485
   7     0.0004242656574256
   8    -0.0034672436204947
   9     0.0000000000015170
  10     0.0000000000005409
  11     0.0002245756541146
  12    -0.0003263522376631
  13    -0.0000000000000681
  14    -0.0170808584744513
  15     0.0007770689887989
  16    -0.0015810335345276
  17    -0.0021210741078853
  18     0.3676108011117298
  19     0.0050161341147105
  20    -0.0000263185179717
  21     0.2555200118476396
  22     0.0015812514666474
  23     0.0001290539325235
  24     0.0001231021309560
  25     0.0098509530269593
  26    -0.0004727173872516
  27    -0.0000333368843687
  28     0.0103897087671168
  29    -0.0008477177765465
  30     0.0017930087568742
  31     0.0020123729252722
  32     0.1993794209773762
  33    -0.0005329508848220
  34     0.0008835697342701
  35     0.1400099675385412
  36     0.0000869290356283
  37     0.0001197624727243
  38     0.0001070340768999
  39    -0.0190470601230988
  40    -0.0001625627793188
  41     0.0000378067144181
  42    -0.0117780829580660
  43     0.0008477177734313
  44    -0.0017930087576084
  45    -0.0020123729906041
  46    -0.2181374497961376
  47    -0.0005329508782260
  48    -0.0008835697453079
  49    -0.1552634298136007
  50     0.0000869290142906
  51    -0.0001197624759974
  52    -0.0001070340758741
  53     0.0188854897375378
  54    -0.0001625627834960
  55    -0.0000378067121381
  56    -0.0104285556539787
  57    -0.0007770689940170
  58     0.0015810335437862
  59     0.0021210741525728
  60    -0.3548405465155402
  61     0.0050161341287199
  62     0.0000263185132568
  63    -0.2442163785775909
  64     0.0015812514622067
  65    -0.0001290539284327
  66    -0.0001231021306234
  67    -0.0106346131325824
  68    -0.0004727173859875
  69     0.0000333368860202
  70     0.0103090053649748
  71    -0.0043246961090327
  72    -0.0006635958928297
  73     0.0093128514885682
  74    -0.0002555107085262
  75    -0.0001824341409160
  76     0.0018220469204125
  77     0.0004060109086786
  78     0.0049051302056683
  79     0.0000732187165716
  80    -0.0001159073261319
  81    -0.0018220469056973
  82    -0.0004060108607341
  83    -0.0053682427567454
  84     0.0000732187159685
  85     0.0001159073255084
  86     0.0043246960995100
  87     0.0006635958710253
  88    -0.0089456354270206
  89    -0.0002555107064582
  90     0.0001824341380229
 Ene=    0.352586
 Spin= Alpha
 Sym= 0->1
 Occup=     0.925263
   1    -0.0000000000078867
   2    -0.0000000000065477
   3     0.0000000000468570
   4     0.2875657191248505
   5     0.1013368828660312
   6    -0.0000000000535832
   7     0.2210638222853864
   8     0.0635381725013112
   9    -0.0000000000190635
  10     0.0000000000002105
  11     0.0097624878597821
  12     0.0059804924976301
  13     0.0000000000013555
  14     0.0003527554151878
  15    -0.0142399982740578
  16     0.0289728651416046
  17     0.0388692533380947
  18    -0.0103093606578720
  19    -0.0919220077514810
  20     0.0004822936138729
  21     0.0210737121514537
  22    -0.0289768595866974
  23    -0.0023649486526853
  24    -0.0022558797996802
  25    -0.0222744525769761
  26     0.0086626733075241
  27     0.0006109074688663
  28     0.0039181992057241
  29     0.0155346562790733
  30    -0.0328573679060867
  31    -0.0368772737993206
  32    -0.3205573209129720
  33     0.0097664683778906
  34    -0.0161916533609126
  35    -0.2249333782708423
  36    -0.0015929971711819
  37    -0.0021946803331140
  38    -0.0019614282515094
  39     0.0083953620389315
  40     0.0029790066438029
  41    -0.0006928181734016
  42    -0.0165654420256528
  43    -0.0155346562446296
  44     0.0328573678918138
  45     0.0368772737530290
  46    -0.3187743950816010
  47     0.0097664682437084
  48     0.0161916533085504
  49    -0.2242726298491886
  50    -0.0015929972504768
  51     0.0021946803079453
  52     0.0019614282553955
  53     0.0079207328306504
  54     0.0029790066487111
  55     0.0006928181700667
  56     0.0168075877956872
  57     0.0142399982631293
  58    -0.0289728651720779
  59    -0.0388692532969539
  60     0.0032014081109898
  61    -0.0919220077443968
  62    -0.0004822935894375
  63     0.0305667275834606
  64    -0.0289768595420788
  65     0.0023649486619949
  66     0.0022558797927019
  67    -0.0222564134196428
  68     0.0086626732954998
  69    -0.0006109074703268
  70    -0.0043124805350189
  71     0.0792512195762595
  72     0.0121605725149012
  73    -0.0000391371151200
  74     0.0046823025015116
  75     0.0033431547314195
  76    -0.0333894999995190
  77    -0.0074402587906332
  78    -0.0076226152755220
  79    -0.0013417527295985
  80     0.0021240329519232
  81     0.0333894999415379
  82     0.0074402588122009
  83    -0.0075349567701663
  84    -0.0013417527300643
  85    -0.0021240329422056
  86    -0.0792512196165761
  87    -0.0121605725492319
  88     0.0002804054047126
  89     0.0046823025059497
  90    -0.0033431547322377
 Ene=    0.474755
 Spin= Alpha
 Sym= 0->2
 Occup=     0.644873
   1    -0.0000000000167012
   2    -0.0000000000012271
   3    -0.0000000000689182
   4     0.0868095613795492
   5    -0.1999566982782461
   6     0.0000000001232449
   7     0.0634400653713336
   8    -0.1253727451395786
   9     0.0000000000452457
  10     0.0000000000011950
  11     0.0016248659063564
  12    -0.0118006346777194
  13    -0.0000000000035598
  14     0.0001847800042319
  15     0.0280981903561531
  16    -0.0571689032857171
  17    -0.0766963355277596
  18    -0.0419200364633494
  19     0.1813793818060073
  20    -0.0009516558638915
  21    -0.0275850054432760
  22     0.0571767849963713
  23     0.0046664877273556
  24     0.0044512744340429
  25    -0.0046343923121733
  26    -0.0170930810584690
  27    -0.0012054351466679
  28     0.0008728925023737
  29    -0.0306527937255445
  30     0.0648337565937958
  31     0.0727657859005374
  32    -0.0460738216385761
  33    -0.0192710760102654
  34     0.0319491724625823
  35    -0.0266573228714036
  36     0.0031432825851617
  37     0.0043305163304579
  38     0.0038702662463605
  39     0.0031965113623847
  40    -0.0058781394868582
  41     0.0013670603456574
  42    -0.0009248394485618
  43     0.0306527937540930
  44    -0.0648337566095418
  45    -0.0727657857592186
  46    -0.0371784314058038
  47    -0.0192710757182629
  48    -0.0319491723662016
  49    -0.0199821676454526
  50     0.0031432827491360
  51    -0.0043305163371448
  52    -0.0038702662480736
  53     0.0025884944114391
  54    -0.0058781395001367
  55    -0.0013670603332639
  56     0.0013036510771574
  57    -0.0280981904046236
  58     0.0571689033176934
  59     0.0766963354245689
  60    -0.0332023256845858
  61     0.1813793817940238
  62     0.0009516558215770
  63    -0.0216490643525493
  64     0.0571767849624926
  65    -0.0046664877688237
  66    -0.0044512744234537
  67    -0.0041534824977181
  68    -0.0170930810345269
  69     0.0012054351544172
  70    -0.0011180585542892
  71    -0.1563775375333688
  72    -0.0239950930203788
  73    -0.0011308774875793
  74    -0.0092390620453209
  75    -0.0065966720396817
  76     0.0658837531932178
  77     0.0146810277387705
  78    -0.0010297531225609
  79     0.0026475300852752
  80    -0.0041911158553523
  81    -0.0658837530634852
  82    -0.0146810277433225
  83    -0.0008389069474705
  84     0.0026475300768644
  85     0.0041911158319525
  86     0.1563775375626861
  87     0.0239950930593743
  88    -0.0008965254804268
  89    -0.0092390620540060
  90     0.0065966720393760
 Ene=    0.061336
 Spin= Alpha
 Sym= 1->0
 Occup=     0.424143
   1    -0.0000000000014433
   2    -0.0000000000058412
   3     0.0000000000150045
   4    -0.0005500199032264
   5     0.0012436454341427
   6    -0.0000000000055818
   7    -0.0003927364825728
   8     0.0007797650433206
   9     0.0000000000049823
  10     0.0000000000004189
  11    -0.0000065959235303
  12     0.0000733949145183
  13     0.0000000000005824
  14    -0.0082966522449754
  15    -0.0001747587712300
  16     0.0003555662207166
  17     0.0004770184193321
  18     0.1076295617284750
  19    -0.0011281024501982
  20     0.0000059188837031
  21     0.0815860218944617
  22    -0.0003556152542970
  23    -0.0000290235820259
  24    -0.0000276850319012
  25    -0.0145939874935714
  26     0.0001063116783965
  27     0.0000074972993240
  28     0.0034160052838846
  29     0.0001906473164979
  30    -0.0004032383616356
  31    -0.0004525720257558
  32    -0.2293111706877147
  33     0.0001198578797034
  34    -0.0001987102281244
  35    -0.1912550815265102
  36    -0.0000195498488010
  37    -0.0000269340351550
  38    -0.0000240714042772
  39     0.0057019882581417
  40     0.0000365595213187
  41    -0.0000085025343302
  42     0.0050730025486373
  43    -0.0001906473110774
  44     0.0004032383314098
  45     0.0004525720592744
  46     0.2295316128995022
  47     0.0001198578742590
  48     0.0001987102308753
  49     0.1913016883575721
  50    -0.0000195498464831
  51     0.0000269340320427
  52     0.0000240714057972
  53    -0.0057410464557534
  54     0.0000365595263367
  55     0.0000085025337867
  56     0.0050808338713190
  57     0.0001747587687811
  58    -0.0003555662102110
  59    -0.0004770184582170
  60    -0.1069494254713369
  61    -0.0011281024495504
  62    -0.0000059188825472
  63    -0.0810927229899156
  64    -0.0003556152527501
  65     0.0000290235906434
  66     0.0000276850299632
  67     0.0146366437497627
  68     0.0001063116766702
  69    -0.0000074972945150
  70     0.0034272385914641
  71     0.0009726016273020
  72     0.0001492392538979
  73     0.0016609158873268
  74     0.0000574630292049
  75     0.0000410284869480
  76    -0.0004097688641168
  77    -0.0000913097208003
  78    -0.0035250444193629
  79    -0.0000164665067891
  80     0.0000260669551664
  81     0.0004097688613525
  82     0.0000913097195326
  83     0.0035293106033608
  84    -0.0000164665104529
  85    -0.0000260669534953
  86    -0.0009726016296534
  87    -0.0001492392378234
  88    -0.0016421945701804
  89     0.0000574630252716
  90    -0.0000410284860082
 Ene=    0.106384
 Spin= Alpha
 Sym= 1->1
 Occup=     0.426802
   1     0.0000000000018456
   2    -0.0000000000042701
   3     0.0000000000227441
   4    -0.1901856777982865
   5     0.0145574730696137
   6     0.0000000000007550
   7    -0.1294579101112830
   8     0.0091275280012574
   9    -0.0000000000084390
  10     0.0000000000036364
  11     0.0002650102363487
  12     0.0008591231159214
  13     0.0000000000051211
  14     0.0003951096610869
  15    -0.0020456361380825
  16     0.0041620749456898
  17     0.0055837331980205
  18     0.1814316387762132
  19    -0.0132049863469635
  20     0.0000692835059351
  21     0.1430530665811971
  22    -0.0041626488276244
  23    -0.0003397348950305
  24    -0.0003240667063469
  25     0.0032155758488248
  26     0.0012444297635593
  27     0.0000877594468514
  28    -0.0016604346729736
  29     0.0022316192533644
  30    -0.0047201002333342
  31    -0.0052975769290095
  32    -0.0629300377414495
  33     0.0014029946332790
  34    -0.0023259997040310
  35    -0.0734994623232411
  36    -0.0002288408232752
  37    -0.0003152751507930
  38    -0.0002817674901790
  39    -0.0075676248913028
  40     0.0004279469345136
  41    -0.0000995262643991
  42    -0.0089491690992551
  43    -0.0022316192601158
  44     0.0047201002511881
  45     0.0052975768596006
  46    -0.0721507985183740
  47     0.0014029945985438
  48     0.0023259996913426
  49    -0.0816770495171503
  50    -0.0002288408361805
  51     0.0003152751254738
  52     0.0002817674885567
  53    -0.0075928481598198
  54     0.0004279469465242
  55     0.0000995262676519
  56     0.0088653594613168
  57     0.0020456361478914
  58    -0.0041620749853285
  59    -0.0055837331130549
  60     0.1942531103677368
  61    -0.0132049863110487
  62    -0.0000692835253087
  63     0.1523285563622552
  64    -0.0041626488121380
  65     0.0003397349327901
  66     0.0003240667014407
  67     0.0025714894471426
  68     0.0012444297648825
  69    -0.0000877594490755
  70     0.0012732487545259
  71     0.0113847738578285
  72     0.0017469177589448
  73     0.0051268205665674
  74     0.0006726326159630
  75     0.0004802583564201
  76    -0.0047965432823478
  77    -0.0010688247198827
  78    -0.0018154692593704
  79    -0.0001927484725225
  80     0.0003051263366009
  81     0.0047965433128358
  82     0.0010688247234192
  83    -0.0019214919272533
  84    -0.0001927484736272
  85    -0.0003051263401307
  86    -0.0113847738515368
  87    -0.0017469178320346
  88     0.0053903689960805
  89     0.0006726326141399
  90    -0.0004802583619986
 Ene=    0.228553
 Spin= Alpha
 Sym= 1->2
 Occup=     0.414483
   1     0.0000000000044455
   2    -0.0000000000030131
   3     0.0000000000247251
   4    -0.2066520701993266
   5     0.0291389738729692
   6    -0.0000000000098767
   7    -0.1434541457216475
   8     0.0182701213707089
   9    -0.0000000000116191
  10     0.0000000000030793
  11    -0.0008309922413271
  12     0.0017196642507316
  13     0.0000000000049056
  14     0.0005424989156001
  15    -0.0040946486879392
  16     0.0083310196079896
  17     0.0111766825071441
  18     0.1644363803111700
  19    -0.0264317680637183
  20     0.0001386813870721
  21     0.1266880524303256
  22    -0.0083321682390057
  23    -0.0006800305432514
  24    -0.0006486682932696
  25     0.0055592846247764
  26     0.0024909135142762
  27     0.0001756637467197
  28    -0.0020682800638271
  29     0.0044669218931164
  30    -0.0094479912339250
  31    -0.0106038976169763
  32    -0.0205630318485795
  33     0.0028083049450512
  34    -0.0046558385529305
  35    -0.0410021701923201
  36    -0.0004580593394245
  37    -0.0006310706538615
  38    -0.0005640000477861
  39    -0.0078580787452679
  40     0.0008566002205513
  41    -0.0001992168062382
  42    -0.0064178392920123
  43    -0.0044669219058365
  44     0.0094479912535764
  45     0.0106038975412255
  46    -0.0333369680066603
  47     0.0028083048892677
  48     0.0046558385341720
  49    -0.0523205177697308
  50    -0.0004580593643759
  51     0.0006310706343123
  52     0.0005640000461750
  53    -0.0078875866055238
  54     0.0008566002325001
  55     0.0001992168078855
  56     0.0062991730405551
  57     0.0040946487038341
  58    -0.0083310196450203
  59    -0.0111766824215478
  60     0.1820173022058178
  61    -0.0264317680307871
  62    -0.0001386814012698
  63     0.1394098776256222
  64    -0.0083321682248257
  65     0.0006800305812937
  66     0.0006486682881905
  67     0.0046682098133069
  68     0.0024909135135415
  69    -0.0001756637496321
  70     0.0015372115851673
  71     0.0227883387751862
  72     0.0034967189545690
  73     0.0046447484938713
  74     0.0013463754400608
  75     0.0009613094014550
  76    -0.0096010034938840
  77    -0.0021394136055485
  78    -0.0008109777531419
  79    -0.0003858150834965
  80     0.0006107563050581
  81     0.0096010035100060
  82     0.0021394136070378
  83    -0.0009586169576223
  84    -0.0003858150833365
  85    -0.0006107563061679
  86    -0.0227883387695519
  87    -0.0034967190219466
  88     0.0050056544909457
  89     0.0013463754391618
  90    -0.0009613094063328
 Ene=   -0.001118
 Spin= Alpha
 Sym= 2->0
 Occup=     0.640345
   1     0.0000000000015506
   2     0.0000000000079945
   3    -0.0000000000254138
   4     0.2498811270098786
   5     0.0125296498523233
   6    -0.0000000000227320
   7     0.1671257329392993
   8     0.0078560838855858
   9     0.0000000000041451
  10    -0.0000000000058995
  11    -0.0015388726622749
  12     0.0007394491991815
  13    -0.0000000000072579
  14     0.0003655291247712
  15    -0.0017606836410739
  16     0.0035823073482895
  17     0.0048059315675639
  18    -0.2826185537532686
  19    -0.0113655614269454
  20     0.0000596325130092
  21    -0.2257800754280130
  22    -0.0035828011203010
  23    -0.0002924106036413
  24    -0.0002789249323407
  25    -0.0005534052779557
  26     0.0010710835049550
  27     0.0000755347580760
  28     0.0015958761999359
  29     0.0019207597290460
  30    -0.0040626009840353
  31    -0.0045596361392299
  32     0.1568493422524933
  33     0.0012075605865252
  34    -0.0020019931450451
  35     0.1572526468068537
  36    -0.0001969637709017
  37    -0.0002713579812913
  38    -0.0002425179092485
  39     0.0097068557654584
  40     0.0003683349048681
  41    -0.0000856624908902
  42     0.0147404387518031
  43    -0.0019207597282000
  44     0.0040626009646253
  45     0.0045596362154919
  46     0.1194610010879472
  47     0.0012075605882011
  48     0.0020019931476837
  49     0.1267464023046284
  50    -0.0001969637802238
  51     0.0002713580239335
  52     0.0002425179116152
  53     0.0109862278910079
  54     0.0003683348883799
  55     0.0000856624835494
  56    -0.0157312935512094
  57     0.0017606836376610
  58    -0.0035823072932138
  59    -0.0048059316747457
  60    -0.2767033518054861
  61    -0.0113655614801441
  62    -0.0000596324762555
  63    -0.2206907526001009
  64    -0.0035828011404669
  65     0.0002924105529438
  66     0.0002789249383572
  67    -0.0028581744935877
  68     0.0010710834989205
  69    -0.0000755347567726
  70    -0.0018140382061812
  71     0.0097989004987683
  72     0.0015035762075332
  73    -0.0078553558672010
  74     0.0005789364054292
  75     0.0004133594524922
  76    -0.0041283956645765
  77    -0.0009199398943073
  78     0.0039855544050475
  79    -0.0001658990417561
  80     0.0002626229414831
  81     0.0041283955947647
  82     0.0009199398880002
  83     0.0033621451164339
  84    -0.0001658990377954
  85    -0.0002626229319954
  86    -0.0097989005111767
  87    -0.0015035761028276
  88    -0.0078542830050581
  89     0.0005789364101722
  90    -0.0004133594438984
 Ene=    0.043930
 Spin= Alpha
 Sym= 2->1
 Occup=     0.095695
   1     0.0000000000000102
   2    -0.0000000000014900
   3     0.0000000000046380
   4    -0.0146845878933722
   5     0.0016443959483196
   6    -0.0000000000017627
   7    -0.0102145246534875
   8     0.0010310354008976
   9     0.0000000000004472
  10     0.0000000000003174
  11    -0.0000673779509991
  12     0.0000970455897051
  13     0.0000000000004573
  14    -0.0021284885215086
  15    -0.0002310727808760
  16     0.0004701433553594
  17     0.0006307322591422
  18     0.0421606612364345
  19    -0.0014916205544226
  20     0.0000078261860390
  21     0.0316186928874994
  22    -0.0004702081801471
  23    -0.0000383760801244
  24    -0.0000366062146578
  25    -0.0026368754561020
  26     0.0001405694005039
  27     0.0000099132110355
  28     0.0008083508880975
  29     0.0002520812268284
  30    -0.0005331772749243
  31    -0.0005984083516526
  32    -0.0480217404974043
  33     0.0001584807106724
  34    -0.0002627423345579
  35    -0.0422459315812415
  36    -0.0000258495965538
  37    -0.0000356131449385
  38    -0.0000318281413793
  39     0.0003511113176188
  40     0.0000483404093060
  41    -0.0000112423765581
  42     0.0004827380816501
  43    -0.0002520812265663
  44     0.0005331772695575
  45     0.0005984083529509
  46     0.0448828920394375
  47     0.0001584807065032
  48     0.0002627423339270
  49     0.0361748304296072
  50    -0.0000258495977352
  51     0.0000356131428663
  52     0.0000318281416153
  53    -0.0014645760989095
  54     0.0000483404111304
  55     0.0000112423766231
  56     0.0013369829479910
  57     0.0002310727812576
  58    -0.0004701433552982
  59    -0.0006307322612666
  60    -0.0180014958133065
  61    -0.0014916205517743
  62    -0.0000078261869698
  63    -0.0131182094306298
  64    -0.0004702081790464
  65     0.0000383760846449
  66     0.0000366062139151
  67     0.0033929558087333
  68     0.0001405694001585
  69    -0.0000099132101218
  70     0.0010676648895700
  71     0.0012860113773509
  72     0.0001973298881512
  73     0.0008643144812945
  74     0.0000759798315823
  75     0.0000542494489451
  76    -0.0005418121898195
  77    -0.0001207332480073
  78    -0.0007334147162217
  79    -0.0000217726524211
  80     0.0000344667318161
  81     0.0005418121909335
  82     0.0001207332487004
  83     0.0006247190169579
  84    -0.0000217726532488
  85    -0.0000344667315931
  86    -0.0012860113775456
  87    -0.0001973298895215
  88    -0.0001917904782769
  89     0.0000759798306644
  90    -0.0000542494491275
 Ene=    0.166099
 Spin= Alpha
 Sym= 2->2
 Occup=     0.409204
   1    -0.0000000000009972
   2     0.0000000000001254
   3     0.0000000000034080
   4    -0.0088098976594637
   5     0.0001135812801832
   6     0.0000000000060662
   7    -0.0062425965121156
   8     0.0000712154011481
   9    -0.0000000000008168
  10    -0.0000000000000779
  11    -0.0000863724416036
  12     0.0000067031095702
  13     0.0000000000001894
  14     0.0083579332058183
  15    -0.0000159606002565
  16     0.0000324736108861
  17     0.0000435657949474
  18    -0.1654334258064765
  19    -0.0001030288146698
  20     0.0000005405760139
  21    -0.1147049506577570
  22    -0.0000324780721034
  23    -0.0000026506858967
  24    -0.0000025284518079
  25    -0.0031693411395068
  26     0.0000097093728842
  27     0.0000006847197408
  28    -0.0050246887888642
  29     0.0000174116907193
  30    -0.0000368274771010
  31    -0.0000413331599444
  32    -0.0752633771730209
  33     0.0000109465385738
  34    -0.0000181480649798
  35    -0.0519108797312655
  36    -0.0000017854992694
  37    -0.0000024598373586
  38    -0.0000021984254814
  39     0.0077913423277636
  40     0.0000033389565720
  41    -0.0000007765311669
  42     0.0044927763854903
  43    -0.0000174116897492
  44     0.0000368274804658
  45     0.0000413331854024
  46     0.0771942147335067
  47     0.0000109465386499
  48     0.0000181480705668
  49     0.0513603210353338
  50    -0.0000017854880173
  51     0.0000024598377693
  52     0.0000021984247884
  53    -0.0084294852201524
  54     0.0000033389584728
  55     0.0000007765305242
  56     0.0047326055653553
  57     0.0000159606026359
  58    -0.0000324736173377
  59    -0.0000435658093675
  60     0.1773914214919880
  61    -0.0001030288194183
  62    -0.0000005405755916
  63     0.1235514178158067
  64    -0.0000324780700174
  65     0.0000026506846799
  66     0.0000025284517248
  67     0.0037847161109470
  68     0.0000097093728741
  69    -0.0000006847208555
  70    -0.0048519581800416
  71     0.0000888270473766
  72     0.0000136299339796
  73    -0.0040838072876306
  74     0.0000052480585271
  75     0.0000037471035149
  76    -0.0000374239098652
  77    -0.0000083392637546
  78    -0.0020271859797718
  79    -0.0000015038739534
  80     0.0000023806762905
  81     0.0000374239069094
  82     0.0000083392423127
  83     0.0020560513638442
  84    -0.0000015038735708
  85    -0.0000023806766626
  86    -0.0000888270420914
  87    -0.0000136299284296
  88     0.0044142947309404
  89     0.0000052480576760
  90    -0.0000037471025651
 Ene=   -0.077660
 Spin= Alpha
 Sym= 3->0
 Occup=     0.446070
   1    -0.0000000000009224
   2    -0.0000000000054551
   3     0.0000000000124297
   4     0.0179942085012896
   5     0.0021517744655916
   6    -0.0000000000095436
   7     0.0119126769849576
   8     0.0013491614707116
   9     0.0000000000056919
  10     0.0000000000000330
  11    -0.0001598762317566
  12     0.0001269890118549
  13     0.0000000000000219
  14    -0.0114229376155639
  15    -0.0003023703113265
  16     0.0006152061445289
  17     0.0008253446613568
  18     0.1481873572563233
  19    -0.0019518602113221
  20     0.0000102409501606
  21     0.1076074847843019
  22    -0.0006152909716330
  23    -0.0000502170420843
  24    -0.0000479010670503
  25    -0.0138473455745674
  26     0.0001839421018275
  27     0.0000129719392637
  28     0.0053417622930769
  29     0.0003298609159461
  30    -0.0006976892008906
  31    -0.0007830471553929
  32    -0.1973014070545713
  33     0.0002073799442070
  34    -0.0003438114984652
  35    -0.1667483424534613
  36    -0.0000338254601973
  37    -0.0000466016387544
  38    -0.0000416487151836
  39     0.0038270379948248
  40     0.0000632558473305
  41    -0.0000147112147901
  42     0.0048594157261466
  43    -0.0003298609109618