[Molden Format]
[Title]
DFTB calculation
[Atoms] AU
c     1     6       2.5174174 -0.0000000 -0.0000000
h     2     1       3.4662677 1.6196275 -0.0000000
h     3     1       3.4662677 -1.6196275 0.0000000
c     4     6       -0.0040818 0.0000000 0.0000000
h     5     1       -0.9529321 1.6196275 0.0000000
h     6     1       -0.9529321 -1.6196275 -0.0000000
c     7     6       2.5174174 -0.0000000 5.6691780
h     8     1       3.4662677 1.6196275 5.6691780
h     9     1       3.4662677 -1.6196275 5.6691780
c     10     6       -0.0040818 0.0000000 5.6691780
h     11     1       -0.9529321 1.6196275 5.6691780
h     12     1       -0.9529321 -1.6196275 5.6691780
[GTO]
1 0
 s    3 1.00                                   
 0.29412494000000E+01 -.99967228413962E-01     
 0.68348310000000E+00 0.39951282765793E+00     
 0.22228992000000E+00 0.70011546589571E+00     
 p    3 1.00                                   
 0.29412494000000E+01 0.15591627960143E+00     
 0.68348310000000E+00 0.60768371844656E+00     
 0.22228992000000E+00 0.39195738899803E+00     
2 0
 s    3 1.00                                  
 0.34252510000000E+01 0.15432897017315E+00     
 0.62391374000000E+00 0.53532814060062E+00     
 0.16885541000000E+00 0.44463454049886E+00     
3 0
 s    3 1.00                                  
 0.34252510000000E+01 0.15432897017315E+00     
 0.62391374000000E+00 0.53532814060062E+00     
 0.16885541000000E+00 0.44463454049886E+00     
4 0
 s    3 1.00                                   
 0.29412494000000E+01 -.99967228413962E-01     
 0.68348310000000E+00 0.39951282765793E+00     
 0.22228992000000E+00 0.70011546589571E+00     
 p    3 1.00                                   
 0.29412494000000E+01 0.15591627960143E+00     
 0.68348310000000E+00 0.60768371844656E+00     
 0.22228992000000E+00 0.39195738899803E+00     
5 0
 s    3 1.00                                  
 0.34252510000000E+01 0.15432897017315E+00     
 0.62391374000000E+00 0.53532814060062E+00     
 0.16885541000000E+00 0.44463454049886E+00     
6 0
 s    3 1.00                                  
 0.34252510000000E+01 0.15432897017315E+00     
 0.62391374000000E+00 0.53532814060062E+00     
 0.16885541000000E+00 0.44463454049886E+00     
7 0
 s    3 1.00                                   
 0.29412494000000E+01 -.99967228413962E-01     
 0.68348310000000E+00 0.39951282765793E+00     
 0.22228992000000E+00 0.70011546589571E+00     
 p    3 1.00                                   
 0.29412494000000E+01 0.15591627960143E+00     
 0.68348310000000E+00 0.60768371844656E+00     
 0.22228992000000E+00 0.39195738899803E+00     
8 0
 s    3 1.00                                  
 0.34252510000000E+01 0.15432897017315E+00     
 0.62391374000000E+00 0.53532814060062E+00     
 0.16885541000000E+00 0.44463454049886E+00     
9 0
 s    3 1.00                                  
 0.34252510000000E+01 0.15432897017315E+00     
 0.62391374000000E+00 0.53532814060062E+00     
 0.16885541000000E+00 0.44463454049886E+00     
10 0
 s    3 1.00                                   
 0.29412494000000E+01 -.99967228413962E-01     
 0.68348310000000E+00 0.39951282765793E+00     
 0.22228992000000E+00 0.70011546589571E+00     
 p    3 1.00                                   
 0.29412494000000E+01 0.15591627960143E+00     
 0.68348310000000E+00 0.60768371844656E+00     
 0.22228992000000E+00 0.39195738899803E+00     
11 0
 s    3 1.00                                  
 0.34252510000000E+01 0.15432897017315E+00     
 0.62391374000000E+00 0.53532814060062E+00     
 0.16885541000000E+00 0.44463454049886E+00     
12 0
 s    3 1.00                                  
 0.34252510000000E+01 0.15432897017315E+00     
 0.62391374000000E+00 0.53532814060062E+00     
 0.16885541000000E+00 0.44463454049886E+00     
[5D]
[MO]
 Sym=  1a
 Ene=  -0.5276718
 Spin= Alpha
 Occup=2.0000000
    1    -0.0017592
    2    -0.0022060
    3    -0.0000000
    4    0.0079729
    5    -0.0013950
    6    -0.0013950
    7    -0.0017644
    8    0.0022000
    9    0.0000000
    10    0.0079126
    11    -0.0014113
    12    -0.0014113
    13    0.3960469
    14    0.3402647
    15    0.0000000
    16    0.0296231
    17    0.0245446
    18    0.0245446
    19    0.3990269
    20    -0.3385452
    21    -0.0000000
    22    0.0296221
    23    0.0262855
    24    0.0262855
 Sym=  2a
 Ene=  -0.5279096
 Spin= Alpha
 Occup=2.0000000
    1    -0.3953456
    2    -0.3428943
    3    0.0000000
    4    0.0074617
    5    -0.0232179
    6    -0.0232179
    7    -0.3978778
    8    0.3414271
    9    -0.0000000
    10    0.0074609
    11    -0.0246741
    12    -0.0246741
    13    0.0017923
    14    0.0024053
    15    -0.0000000
    16    0.0086011
    17    0.0011123
    18    0.0011123
    19    0.0017939
    20    -0.0024017
    21    0.0000000
    22    0.0085507
    23    0.0011241
    24    0.0011241
 Sym=  3a
 Ene=  -0.5167098
 Spin= Alpha
 Occup=2.0000000
    1    -0.0000437
    2    0.0003806
    3    0.0000000
    4    -0.0080876
    5    -0.0018858
    6    -0.0018858
    7    0.0000268
    8    0.0004043
    9    0.0000000
    10    0.0081798
    11    0.0018718
    12    0.0018718
    13    0.3717497
    14    -0.2063974
    15    0.0000000
    16    0.0000776
    17    0.2347295
    18    0.2347295
    19    -0.3682048
    20    -0.2082686
    21    0.0000000
    22    0.0002786
    23    -0.2340633
    24    -0.2340633
 Sym=  4a
 Ene=  -0.5167172
 Spin= Alpha
 Occup=2.0000000
    1    0.3715209
    2    -0.2066058
    3    -0.0000000
    4    0.0002158
    5    0.2347166
    6    0.2347166
    7    -0.3684362
    8    -0.2080604
    9    -0.0000000
    10    0.0000427
    11    -0.2340714
    12    -0.2340714
    13    0.0005940
    14    0.0000281
    15    -0.0000000
    16    0.0081006
    17    -0.0014801
    18    -0.0014801
    19    -0.0006067
    20    0.0000452
    21    0.0000000
    22    -0.0081629
    23    0.0014724
    24    0.0014724
 Sym=  5a
 Ene=  -0.5066244
 Spin= Alpha
 Occup=2.0000000
    1    0.0000000
    2    -0.0000000
    3    0.0004090
    4    -0.0000000
    5    -0.0011373
    6    0.0011373
    7    0.0000000
    8    -0.0000000
    9    0.0004090
    10    0.0000000
    11    -0.0011373
    12    0.0011373
    13    0.0000000
    14    0.0000000
    15    -0.4023263
    16    -0.0000000
    17    0.2348190
    18    -0.2348190
    19    -0.0000000
    20    -0.0000000
    21    -0.4023248
    22    -0.0000000
    23    0.2348178
    24    -0.2348178
 Sym=  6a
 Ene=  -0.5066263
 Spin= Alpha
 Occup=2.0000000
    1    0.0000000
    2    -0.0000000
    3    0.4023262
    4    -0.0000000
    5    -0.2348186
    6    0.2348186
    7    0.0000000
    8    -0.0000000
    9    0.4023246
    10    0.0000000
    11    -0.2348173
    12    0.2348173
    13    -0.0000000
    14    0.0000000
    15    -0.0002216
    16    0.0000000
    17    0.0010279
    18    -0.0010279
    19    0.0000000
    20    -0.0000000
    21    -0.0002216
    22    -0.0000000
    23    0.0010279
    24    -0.0010279
 Sym=  7a
 Ene=  -0.4953687
 Spin= Alpha
 Occup=2.0000000
    1    0.0001203
    2    -0.0001383
    3    0.0000000
    4    0.0034482
    5    -0.0014320
    6    -0.0014320
    7    0.0001212
    8    0.0001381
    9    0.0000000
    10    0.0034313
    11    -0.0014352
    12    -0.0014352
    13    0.2178789
    14    -0.3966960
    15    -0.0000000
    16    0.0166820
    17    0.2425565
    18    0.2425565
    19    0.2184356
    20    0.3972143
    21    -0.0000000
    22    0.0166819
    23    0.2430495
    24    0.2430495
 Sym=  8a
 Ene=  -0.4954279
 Spin= Alpha
 Occup=2.0000000
    1    0.2208948
    2    -0.3942905
    3    -0.0000000
    4    0.0059046
    5    0.2427851
    6    0.2427851
    7    0.2214817
    8    0.3948262
    9    -0.0000000
    10    0.0059047
    11    0.2432961
    12    0.2432961
    13    0.0004114
    14    0.0001313
    15    0.0000000
    16    -0.0030228
    17    -0.0012141
    18    -0.0012141
    19    0.0004146
    20    -0.0001301
    21    0.0000000
    22    -0.0030052
    23    -0.0012161
    24    -0.0012161
 Sym=  9a
 Ene=  -0.4426711
 Spin= Alpha
 Occup=2.0000000
    1    -0.0000000
    2    -0.0000000
    3    -0.0002488
    4    -0.0000000
    5    0.0008779
    6    -0.0008779
    7    0.0000000
    8    -0.0000000
    9    0.0002488
    10    0.0000000
    11    -0.0008779
    12    0.0008779
    13    -0.0000000
    14    -0.0000000
    15    0.3907257
    16    -0.0000000
    17    -0.3129982
    18    0.3129982
    19    -0.0000000
    20    0.0000000
    21    -0.3907274
    22    -0.0000000
    23    0.3129990
    24    -0.3129990
 Sym=  10a
 Ene=  -0.4426749
 Spin= Alpha
 Occup=2.0000000
    1    0.0000000
    2    0.0000000
    3    0.3907256
    4    -0.0000000
    5    -0.3129973
    6    0.3129973
    7    0.0000000
    8    -0.0000000
    9    -0.3907274
    10    -0.0000000
    11    0.3129981
    12    -0.3129981
    13    0.0000000
    14    0.0000000
    15    0.0002625
    16    -0.0000000
    17    0.0004683
    18    -0.0004683
    19    -0.0000000
    20    -0.0000000
    21    -0.0002625
    22    -0.0000000
    23    -0.0004683
    24    0.0004683
 Sym=  11a
 Ene=  -0.4199001
 Spin= Alpha
 Occup=2.0000000
    1    0.0014849
    2    0.0047880
    3    -0.0000000
    4    -0.0161246
    5    0.0046869
    6    0.0046869
    7    0.0014906
    8    -0.0047851
    9    0.0000000
    10    -0.0161233
    11    0.0046886
    12    0.0046886
    13    0.0245110
    14    0.0048024
    15    -0.0000000
    16    -0.6306539
    17    0.0070331
    18    0.0070331
    19    0.0244568
    20    -0.0048248
    21    0.0000000
    22    -0.6306528
    23    0.0069959
    24    0.0069959
 Sym=  12a
 Ene=  -0.4195104
 Spin= Alpha
 Occup=2.0000000
    1    -0.0025422
    2    -0.0071216
    3    -0.0000000
    4    -0.6315355
    5    0.0026543
    6    0.0026543
    7    -0.0027179
    8    0.0070244
    9    0.0000000
    10    -0.6315343
    11    0.0025458
    12    0.0025458
    13    -0.0023376
    14    -0.0054480
    15    0.0000000
    16    -0.0173094
    17    -0.0048751
    18    -0.0048751
    19    -0.0023518
    20    0.0054405
    21    -0.0000000
    22    -0.0173132
    23    -0.0048807
    24    -0.0048807
 Sym=  13a
 Ene=  0.0705020
 Spin= Alpha
 Occup=0.0000000
    1    -0.0075214
    2    0.0022804
    3    -0.0000000
    4    -0.8205632
    5    0.0053631
    6    0.0053631
    7    0.0075322
    8    0.0022890
    9    -0.0000000
    10    0.8205639
    11    -0.0053724
    12    -0.0053724
    13    -0.0197013
    14    0.0066211
    15    -0.0000000
    16    -0.0133081
    17    0.0001356
    18    0.0001356
    19    0.0196985
    20    0.0066211
    21    0.0000000
    22    0.0133079
    23    -0.0001341
    24    -0.0001341
 Sym=  14a
 Ene=  0.0705982
 Spin= Alpha
 Occup=0.0000000
    1    -0.0195892
    2    0.0066967
    3    -0.0000000
    4    0.0153466
    5    0.0001064
    6    0.0001064
    7    0.0195872
    8    0.0066972
    9    -0.0000000
    10    -0.0153468
    11    -0.0001054
    12    -0.0001054
    13    -0.0081394
    14    -0.0009486
    15    0.0000000
    16    0.8206057
    17    0.0040984
    18    0.0040984
    19    0.0081298
    20    -0.0009545
    21    -0.0000000
    22    -0.8206065
    23    -0.0040902
    24    -0.0040902
 Sym=  15a
 Ene=  0.8319407
 Spin= Alpha
 Occup=0.0000000
    1    -0.0000000
    2    0.0000000
    3    0.0032885
    4    -0.0000000
    5    -0.0005516
    6    0.0005516
    7    -0.0000000
    8    -0.0000000
    9    0.0032885
    10    -0.0000000
    11    -0.0005516
    12    0.0005516
    13    -0.0000000
    14    0.0000000
    15    -0.7346180
    16    0.0000000
    17    -0.6397184
    18    0.6397184
    19    -0.0000000
    20    -0.0000000
    21    -0.7346174
    22    -0.0000000
    23    -0.6397181
    24    0.6397181
 Sym=  16a
 Ene=  0.8319555
 Spin= Alpha
 Occup=0.0000000
    1    -0.0000000
    2    -0.0000000
    3    0.7346246
    4    -0.0000000
    5    0.6397184
    6    -0.6397184
    7    0.0000000
    8    -0.0000000
    9    0.7346240
    10    0.0000000
    11    0.6397181
    12    -0.6397181
    13    0.0000000
    14    0.0000000
    15    -0.0045325
    16    -0.0000000
    17    -0.0005317
    18    0.0005317
    19    -0.0000000
    20    0.0000000
    21    -0.0045325
    22    -0.0000000
    23    -0.0005317
    24    0.0005317
 Sym=  17a
 Ene=  1.0857402
 Spin= Alpha
 Occup=0.0000000
    1    -0.5694267
    2    0.6829821
    3    0.0000000
    4    0.0067006
    5    0.6478948
    6    0.6478948
    7    0.5710833
    8    0.6842407
    9    -0.0000000
    10    -0.0067039
    11    -0.6493470
    12    -0.6493470
    13    0.0074336
    14    -0.0035083
    15    0.0000000
    16    0.0064468
    17    -0.0006841
    18    -0.0006841
    19    -0.0074586
    20    -0.0035184
    21    0.0000000
    22    -0.0064806
    23    0.0006920
    24    0.0006920
 Sym=  18a
 Ene=  1.0858034
 Spin= Alpha
 Occup=0.0000000
    1    -0.0082715
    2    0.0025488
    3    -0.0000000
    4    0.0063393
    5    0.0007180
    6    0.0007180
    7    0.0082835
    8    0.0025499
    9    0.0000000
    10    -0.0063721
    11    -0.0007151
    12    -0.0007151
    13    0.5473025
    14    -0.7010642
    15    -0.0000000
    16    0.0047176
    17    -0.6452112
    18    -0.6452112
    19    -0.5489138
    20    -0.7022903
    21    -0.0000000
    22    -0.0047205
    23    0.6466260
    24    0.6466260
 Sym=  19a
 Ene=  1.1298755
 Spin= Alpha
 Occup=0.0000000
    1    -0.7696863
    2    0.5402849
    3    -0.0000000
    4    0.0014595
    5    0.6548711
    6    0.6548711
    7    -0.7674848
    8    -0.5395410
    9    0.0000000
    10    0.0014543
    11    0.6533159
    12    0.6533159
    13    0.0084618
    14    -0.0021137
    15    0.0000000
    16    0.0161809
    17    -0.0008453
    18    -0.0008453
    19    0.0084199
    20    0.0021345
    21    -0.0000000
    22    0.0161648
    23    -0.0008463
    24    -0.0008463
 Sym=  20a
 Ene=  1.1299001
 Spin= Alpha
 Occup=0.0000000
    1    -0.0090388
    2    0.0025605
    3    -0.0000000
    4    0.0161831
    5    0.0013565
    6    0.0013565
    7    -0.0090378
    8    -0.0025266
    9    0.0000000
    10    0.0161678
    11    0.0013518
    12    0.0013518
    13    0.7696707
    14    -0.5402807
    15    -0.0000000
    16    0.0014815
    17    -0.6548569
    18    -0.6548569
    19    0.7675142
    20    0.5395487
    21    0.0000000
    22    0.0014577
    23    -0.6533317
    24    -0.6533317
 Sym=  21a
 Ene=  1.5670297
 Spin= Alpha
 Occup=0.0000000
    1    -0.0000000
    2    0.0000000
    3    0.0022355
    4    -0.0000000
    5    -0.0006613
    6    0.0006613
    7    -0.0000000
    8    -0.0000000
    9    -0.0022355
    10    -0.0000000
    11    0.0006613
    12    -0.0006613
    13    -0.0000000
    14    0.0000000
    15    -1.0837490
    16    0.0000000
    17    -0.6544645
    18    0.6544645
    19    -0.0000000
    20    -0.0000000
    21    1.0837494
    22    -0.0000000
    23    0.6544648
    24    -0.6544648
 Sym=  22a
 Ene=  1.5670323
 Spin= Alpha
 Occup=0.0000000
    1    -0.0000000
    2    -0.0000000
    3    1.0837503
    4    0.0000000
    5    0.6544642
    6    -0.6544642
    7    -0.0000000
    8    -0.0000000
    9    -1.0837507
    10    -0.0000000
    11    -0.6544645
    12    0.6544645
    13    0.0000000
    14    -0.0000000
    15    -0.0028156
    16    -0.0000000
    17    0.0003110
    18    -0.0003110
    19    0.0000000
    20    0.0000000
    21    0.0028156
    22    0.0000000
    23    -0.0003110
    24    0.0003110
 Sym=  23a
 Ene=  1.8072035
 Spin= Alpha
 Occup=0.0000000
    1    -1.1435113
    2    -0.9434476
    3    -0.0000000
    4    0.0026887
    5    0.1341862
    6    0.1341862
    7    1.1441704
    8    -0.9429504
    9    -0.0000000
    10    -0.0026895
    11    -0.1346897
    12    -0.1346897
    13    0.0043417
    14    0.0005566
    15    0.0000000
    16    0.0034699
    17    -0.0000711
    18    -0.0000711
    19    -0.0043307
    20    0.0005675
    21    -0.0000000
    22    -0.0034832
    23    0.0000566
    24    0.0000566
 Sym=  24a
 Ene=  1.8071629
 Spin= Alpha
 Occup=0.0000000
    1    -0.0048067
    2    0.0003029
    3    -0.0000000
    4    0.0035539
    5    0.0006327
    6    0.0006327
    7    0.0048321
    8    0.0003175
    9    0.0000000
    10    -0.0035676
    11    -0.0006490
    12    -0.0006490
    13    1.1542800
    14    0.9300928
    15    -0.0000000
    16    0.0042045
    17    -0.1466563
    18    -0.1466563
    19    -1.1549568
    20    0.9295815
    21    -0.0000000
    22    -0.0042060
    23    0.1471754
    24    0.1471754
