 Entering Gaussian System, Link 0=g09
 Initial command:
 /users/humeniuka/software/qc/gaussian-09.A02/g09/l1.exe /users/humeniuka/Gaussian2py-0.0.1/Gaussian2py/test_hessian/Gau-12430.inp -scrdir=/users/humeniuka/Gaussian2py-0.0.1/Gaussian2py/test_hessian/
 Entering Link 1 = /users/humeniuka/software/qc/gaussian-09.A02/g09/l1.exe PID=     12433.
  
 Copyright (c) 1988,1990,1992,1993,1995,1998,2003,2009, Gaussian, Inc.
                  All Rights Reserved.
  
 This is part of the Gaussian(R) 09 program.  It is based on
 the Gaussian(R) 03 system (copyright 2003, Gaussian, Inc.),
 the Gaussian(R) 98 system (copyright 1998, Gaussian, Inc.),
 the Gaussian(R) 94 system (copyright 1995, Gaussian, Inc.),
 the Gaussian 92(TM) system (copyright 1992, Gaussian, Inc.),
 the Gaussian 90(TM) system (copyright 1990, Gaussian, Inc.),
 the Gaussian 88(TM) system (copyright 1988, Gaussian, Inc.),
 the Gaussian 86(TM) system (copyright 1986, Carnegie Mellon
 University), and the Gaussian 82(TM) system (copyright 1983,
 Carnegie Mellon University). Gaussian is a federally registered
 trademark of Gaussian, Inc.
  
 This software contains proprietary and confidential information,
 including trade secrets, belonging to Gaussian, Inc.
  
 This software is provided under written license and may be
 used, copied, transmitted, or stored only in accord with that
 written license.
  
 The following legend is applicable only to US Government
 contracts under FAR:
  
                    RESTRICTED RIGHTS LEGEND
  
 Use, reproduction and disclosure by the US Government is
 subject to restrictions as set forth in subparagraphs (a)
 and (c) of the Commercial Computer Software - Restricted
 Rights clause in FAR 52.227-19.
  
 Gaussian, Inc.
 340 Quinnipiac St., Bldg. 40, Wallingford CT 06492
  
  
 ---------------------------------------------------------------
 Warning -- This program may not be used in any manner that
 competes with the business of Gaussian, Inc. or will provide
 assistance to any competitor of Gaussian, Inc.  The licensee
 of this program is prohibited from giving any competitor of
 Gaussian, Inc. access to this program.  By using this program,
 the user acknowledges that Gaussian, Inc. is engaged in the
 business of creating and licensing software in the field of
 computational chemistry and represents and warrants to the
 licensee that it is not a competitor of Gaussian, Inc. and that
 it will not use this program in any manner prohibited above.
 ---------------------------------------------------------------
  

 Cite this work as:
 Gaussian 09, Revision A.02,
 M. J. Frisch, G. W. Trucks, H. B. Schlegel, G. E. Scuseria, 
 M. A. Robb, J. R. Cheeseman, G. Scalmani, V. Barone, B. Mennucci, 
 G. A. Petersson, H. Nakatsuji, M. Caricato, X. Li, H. P. Hratchian, 
 A. F. Izmaylov, J. Bloino, G. Zheng, J. L. Sonnenberg, M. Hada, 
 M. Ehara, K. Toyota, R. Fukuda, J. Hasegawa, M. Ishida, T. Nakajima, 
 Y. Honda, O. Kitao, H. Nakai, T. Vreven, J. A. Montgomery, Jr., 
 J. E. Peralta, F. Ogliaro, M. Bearpark, J. J. Heyd, E. Brothers, 
 K. N. Kudin, V. N. Staroverov, R. Kobayashi, J. Normand, 
 K. Raghavachari, A. Rendell, J. C. Burant, S. S. Iyengar, J. Tomasi, 
 M. Cossi, N. Rega, J. M. Millam, M. Klene, J. E. Knox, J. B. Cross, 
 V. Bakken, C. Adamo, J. Jaramillo, R. Gomperts, R. E. Stratmann, 
 O. Yazyev, A. J. Austin, R. Cammi, C. Pomelli, J. W. Ochterski, 
 R. L. Martin, K. Morokuma, V. G. Zakrzewski, G. A. Voth, 
 P. Salvador, J. J. Dannenberg, S. Dapprich, A. D. Daniels, 
 O. Farkas, J. B. Foresman, J. V. Ortiz, J. Cioslowski, 
 and D. J. Fox, Gaussian, Inc., Wallingford CT, 2009.
 
 ******************************************
 Gaussian 09:  EM64L-G09RevA.02 11-Jun-2009
                22-Dec-2014 
 ******************************************
 ---------------
 #P AM1 Opt Freq
 ---------------
 1/14=-1,18=20,19=15,26=1,38=1/1,3;
 2/9=110,12=2,17=6,18=5,40=1/2;
 3/5=2,16=1,25=1,41=700000,71=1/1,2,3;
 4/35=1/1;
 5/5=2,35=1,38=5/2;
 6/7=2,8=2,9=2,10=2,28=1/1;
 7//1,2,3,16;
 1/14=-1,18=20,19=15/3(2);
 2/9=110/2;
 99//99;
 2/9=110/2;
 3/5=2,16=1,25=1,41=700000,71=1,135=20/1,2,3;
 4/5=5,16=3,35=1/1;
 5/5=2,35=1,38=5/2;
 7//1,2,3,16;
 1/14=-1,18=20,19=15/3(-5);
 2/9=110/2;
 6/7=2,8=2,9=2,10=2,19=2,28=1/1;
 99/9=1/99;
 Leave Link    1 at Mon Dec 22 20:06:49 2014, MaxMem=          0 cpu:       0.0
 (Enter /users/humeniuka/software/qc/gaussian-09.A02/g09/l101.exe)
 -------
 benzene
 -------
 Symbolic Z-matrix:
 Charge =  0 Multiplicity = 1
 C                    -0.71308   1.20378   0. 
 C                    -0.00904  -0.01566   0. 
 C                     1.39904  -0.01566   0. 
 C                     2.10308   1.20378   0. 
 C                     1.39904   2.42321   0. 
 C                    -0.00904   2.42321   0. 
 H                    -1.73551   1.20378   0. 
 H                    -0.52025  -0.90111   0. 
 H                     1.91025  -0.90111   0. 
 H                     3.12551   1.20378   0. 
 H                     1.91025   3.30866   0. 
 H                    -0.52025   3.30866   0. 
 
 NAtoms=     12 NQM=     12 NQMF=      0 NMic=      0 NMicF=      0 NTot=     12.
                    Isotopes and Nuclear Properties:
 (Nuclear quadrupole moments (NQMom) in fm**2, nuclear magnetic moments (NMagM)
  in nuclear magnetons)

  Atom         1           2           3           4           5           6           7           8           9          10
 IAtWgt=          12          12          12          12          12          12           1           1           1           1
 AtmWgt=  12.0000000  12.0000000  12.0000000  12.0000000  12.0000000  12.0000000   1.0078250   1.0078250   1.0078250   1.0078250
 NucSpn=           0           0           0           0           0           0           1           1           1           1
 AtZEff=   0.0000000   0.0000000   0.0000000   0.0000000   0.0000000   0.0000000   0.0000000   0.0000000   0.0000000   0.0000000
 NQMom=    0.0000000   0.0000000   0.0000000   0.0000000   0.0000000   0.0000000   0.0000000   0.0000000   0.0000000   0.0000000
 NMagM=    0.0000000   0.0000000   0.0000000   0.0000000   0.0000000   0.0000000   2.7928460   2.7928460   2.7928460   2.7928460

  Atom        11          12
 IAtWgt=           1           1
 AtmWgt=   1.0078250   1.0078250
 NucSpn=           1           1
 AtZEff=   0.0000000   0.0000000
 NQMom=    0.0000000   0.0000000
 NMagM=    2.7928460   2.7928460
 Leave Link  101 at Mon Dec 22 20:06:49 2014, MaxMem=   33554432 cpu:       0.1
 (Enter /users/humeniuka/software/qc/gaussian-09.A02/g09/l103.exe)

 GradGradGradGradGradGradGradGradGradGradGradGradGradGradGradGradGradGrad
 Berny optimization.
 Initialization pass.
                           ----------------------------
                           !    Initial Parameters    !
                           ! (Angstroms and Degrees)  !
 --------------------------                            --------------------------
 ! Name  Definition              Value          Derivative Info.                !
 --------------------------------------------------------------------------------
 ! R1    R(1,2)                  1.4081         estimate D2E/DX2                !
 ! R2    R(1,6)                  1.4081         estimate D2E/DX2                !
 ! R3    R(1,7)                  1.0224         estimate D2E/DX2                !
 ! R4    R(2,3)                  1.4081         estimate D2E/DX2                !
 ! R5    R(2,8)                  1.0224         estimate D2E/DX2                !
 ! R6    R(3,4)                  1.4081         estimate D2E/DX2                !
 ! R7    R(3,9)                  1.0224         estimate D2E/DX2                !
 ! R8    R(4,5)                  1.4081         estimate D2E/DX2                !
 ! R9    R(4,10)                 1.0224         estimate D2E/DX2                !
 ! R10   R(5,6)                  1.4081         estimate D2E/DX2                !
 ! R11   R(5,11)                 1.0224         estimate D2E/DX2                !
 ! R12   R(6,12)                 1.0224         estimate D2E/DX2                !
 ! A1    A(2,1,6)              120.0001         estimate D2E/DX2                !
 ! A2    A(2,1,7)              119.9999         estimate D2E/DX2                !
 ! A3    A(6,1,7)              120.0001         estimate D2E/DX2                !
 ! A4    A(1,2,3)              119.9999         estimate D2E/DX2                !
 ! A5    A(1,2,8)              120.0004         estimate D2E/DX2                !
 ! A6    A(3,2,8)              119.9998         estimate D2E/DX2                !
 ! A7    A(2,3,4)              119.9999         estimate D2E/DX2                !
 ! A8    A(2,3,9)              119.9998         estimate D2E/DX2                !
 ! A9    A(4,3,9)              120.0004         estimate D2E/DX2                !
 ! A10   A(3,4,5)              120.0001         estimate D2E/DX2                !
 ! A11   A(3,4,10)             119.9999         estimate D2E/DX2                !
 ! A12   A(5,4,10)             120.0001         estimate D2E/DX2                !
 ! A13   A(4,5,6)              120.0001         estimate D2E/DX2                !
 ! A14   A(4,5,11)             120.0002         estimate D2E/DX2                !
 ! A15   A(6,5,11)             119.9998         estimate D2E/DX2                !
 ! A16   A(1,6,5)              120.0001         estimate D2E/DX2                !
 ! A17   A(1,6,12)             120.0002         estimate D2E/DX2                !
 ! A18   A(5,6,12)             119.9998         estimate D2E/DX2                !
 ! D1    D(6,1,2,3)              0.0            estimate D2E/DX2                !
 ! D2    D(6,1,2,8)            180.0            estimate D2E/DX2                !
 ! D3    D(7,1,2,3)            180.0            estimate D2E/DX2                !
 ! D4    D(7,1,2,8)              0.0            estimate D2E/DX2                !
 ! D5    D(2,1,6,5)              0.0            estimate D2E/DX2                !
 ! D6    D(2,1,6,12)           180.0            estimate D2E/DX2                !
 ! D7    D(7,1,6,5)            180.0            estimate D2E/DX2                !
 ! D8    D(7,1,6,12)             0.0            estimate D2E/DX2                !
 ! D9    D(1,2,3,4)              0.0            estimate D2E/DX2                !
 ! D10   D(1,2,3,9)            180.0            estimate D2E/DX2                !
 ! D11   D(8,2,3,4)            180.0            estimate D2E/DX2                !
 ! D12   D(8,2,3,9)              0.0            estimate D2E/DX2                !
 ! D13   D(2,3,4,5)              0.0            estimate D2E/DX2                !
 ! D14   D(2,3,4,10)           180.0            estimate D2E/DX2                !
 ! D15   D(9,3,4,5)            180.0            estimate D2E/DX2                !
 ! D16   D(9,3,4,10)             0.0            estimate D2E/DX2                !
 ! D17   D(3,4,5,6)              0.0            estimate D2E/DX2                !
 ! D18   D(3,4,5,11)           180.0            estimate D2E/DX2                !
 ! D19   D(10,4,5,6)           180.0            estimate D2E/DX2                !
 ! D20   D(10,4,5,11)            0.0            estimate D2E/DX2                !
 ! D21   D(4,5,6,1)              0.0            estimate D2E/DX2                !
 ! D22   D(4,5,6,12)           180.0            estimate D2E/DX2                !
 ! D23   D(11,5,6,1)           180.0            estimate D2E/DX2                !
 ! D24   D(11,5,6,12)            0.0            estimate D2E/DX2                !
 --------------------------------------------------------------------------------
 Trust Radius=3.00D-01 FncErr=1.00D-07 GrdErr=1.00D-07
 Number of steps in this run=  64 maximum allowed number of steps= 100.
 GradGradGradGradGradGradGradGradGradGradGradGradGradGradGradGradGradGrad

 Leave Link  103 at Mon Dec 22 20:06:51 2014, MaxMem=   33554432 cpu:       0.0
 (Enter /users/humeniuka/software/qc/gaussian-09.A02/g09/l202.exe)
                          Input orientation:                          
 ---------------------------------------------------------------------
 Center     Atomic      Atomic             Coordinates (Angstroms)
 Number     Number       Type             X           Y           Z
 ---------------------------------------------------------------------
      1          6           0       -0.713080    1.203780    0.000000
      2          6           0       -0.009040   -0.015660    0.000000
      3          6           0        1.399040   -0.015660    0.000000
      4          6           0        2.103080    1.203780    0.000000
      5          6           0        1.399040    2.423210    0.000000
      6          6           0       -0.009040    2.423210    0.000000
      7          1           0       -1.735510    1.203780    0.000000
      8          1           0       -0.520250   -0.901110    0.000000
      9          1           0        1.910250   -0.901110    0.000000
     10          1           0        3.125510    1.203780    0.000000
     11          1           0        1.910250    3.308660    0.000000
     12          1           0       -0.520250    3.308660    0.000000
 ---------------------------------------------------------------------
                    Distance matrix (angstroms):
                    1          2          3          4          5
     1  C    0.000000
     2  C    1.408086   0.000000
     3  C    2.438870   1.408080   0.000000
     4  C    2.816160   2.438870   1.408086   0.000000
     5  C    2.438865   2.816163   2.438870   1.408077   0.000000
     6  C    1.408077   2.438870   2.816163   2.438865   1.408080
     7  H    1.022430   2.113701   3.363397   3.838590   3.363393
     8  H    2.113704   1.022427   2.113692   3.363394   3.838591
     9  H    3.363394   2.113692   1.022427   2.113704   3.363397
    10  H    3.838590   3.363397   2.113701   1.022430   2.113695
    11  H    3.363388   3.838591   3.363397   2.113694   1.022427
    12  H    2.113694   3.363397   3.838591   3.363388   2.113692
                    6          7          8          9         10
     6  C    0.000000
     7  H    2.113695   0.000000
     8  H    3.363397   2.430518   0.000000
     9  H    3.838591   4.209766   2.430500   0.000000
    10  H    3.363393   4.861020   4.209766   2.430518   0.000000
    11  H    2.113692   4.209761   4.861018   4.209770   2.430510
    12  H    1.022427   2.430510   4.209770   4.861018   4.209761
                   11         12
    11  H    0.000000
    12  H    2.430500   0.000000
 This structure is nearly, but not quite of a higher symmetry.
 Consider Symm=Loose if the higher symmetry is desired.
 Stoichiometry    C6H6
 Framework group  C2V[SGV(C6H6)]
 Deg. of freedom    11
 Full point group                 C2V     NOp   4
 Largest Abelian subgroup         C2V     NOp   4
 Largest concise Abelian subgroup C2      NOp   2
                         Standard orientation:                         
 ---------------------------------------------------------------------
 Center     Atomic      Atomic             Coordinates (Angstroms)
 Number     Number       Type             X           Y           Z
 ---------------------------------------------------------------------
      1          6           0        0.000000    1.408080   -0.000003
      2          6           0        0.000000    0.704040    1.219437
      3          6           0        0.000000   -0.704040    1.219437
      4          6           0        0.000000   -1.408080   -0.000003
      5          6           0        0.000000   -0.704040   -1.219433
      6          6           0        0.000000    0.704040   -1.219433
      7          1           0        0.000000    2.430510   -0.000003
      8          1           0        0.000000    1.215250    2.104887
      9          1           0        0.000000   -1.215250    2.104887
     10          1           0        0.000000   -2.430510   -0.000003
     11          1           0        0.000000   -1.215250   -2.104883
     12          1           0        0.000000    1.215250   -2.104883
 ---------------------------------------------------------------------
 Rotational constants (GHZ):      5.6632981      5.6632788      2.8316442
 Leave Link  202 at Mon Dec 22 20:06:51 2014, MaxMem=   33554432 cpu:       0.0
 (Enter /users/humeniuka/software/qc/gaussian-09.A02/g09/l301.exe)
 Standard basis: VSTO-6G (5D, 7F)
 Ernie: Thresh=  0.10000D-02 Tol=  0.10000D-05 Strict=F.
  NNHCO=     0 NNPyr=     0 NCTC=     0               EPep=         0.000000000
    EC=        86.122616274  ECS=         2.448799084   EG=         0.204324733
   EHC=         0.000000000  EAt=       -29.152259586  AtH=         2.132162249
 EPDDG=         0.000000000  ECC=        88.775740091 EAtT=        31.284421835
 There are    12 symmetry adapted basis functions of A1  symmetry.
 There are     3 symmetry adapted basis functions of A2  symmetry.
 There are     3 symmetry adapted basis functions of B1  symmetry.
 There are    12 symmetry adapted basis functions of B2  symmetry.
 Integral buffers will be    131072 words long.
 Regular integral format.
 Two-electron integral symmetry is turned off.
    30 basis functions,   180 primitive gaussians,    30 cartesian basis functions
    15 alpha electrons       15 beta electrons
       nuclear repulsion energy       120.0601619258 Hartrees.
 IExCor=    0 DFT=F Ex=HF Corr=None ExCW=0 ScaHFX=  1.000000
 ScaDFX=  1.000000  1.000000  1.000000  1.000000 ScalE2=  1.000000  1.000000
 IRadAn=      0 IRanWt=     -1 IRanGd=            0 ICorTp=0
 Leave Link  301 at Mon Dec 22 20:06:52 2014, MaxMem=   33554432 cpu:       0.0
 (Enter /users/humeniuka/software/qc/gaussian-09.A02/g09/l302.exe)
 Do NDO integrals.
 NPDir=0 NMtPBC=     1 NCelOv=     1 NCel=       1 NClECP=     1 NCelD=      1
         NCelK=      1 NCelE2=     1 NClLst=     1 CellRange=     0.0.
 One-electron integrals computed using PRISM.
 NBasis=    30 RedAO= F  NBF=    12     3     3    12
 NBsUse=    30 1.00D-04 NBFU=    12     3     3    12
 Leave Link  302 at Mon Dec 22 20:06:52 2014, MaxMem=   33554432 cpu:       0.1
 (Enter /users/humeniuka/software/qc/gaussian-09.A02/g09/l303.exe)
 DipDrv:  MaxL=1.
 Leave Link  303 at Mon Dec 22 20:06:52 2014, MaxMem=   33554432 cpu:       0.0
 (Enter /users/humeniuka/software/qc/gaussian-09.A02/g09/l401.exe)
 Simple Huckel Guess.
 Initial guess orbital symmetries:
       Occupied  (A1) (A1) (B2) (A1) (B2) (A1) (B2) (A1) (A1) (B2)
                 (B1) (B2) (A1) (B1) (A2)
       Virtual   (B1) (A2) (A2) (B2) (A1) (B2) (A1) (B2) (A1) (B2)
                 (A1) (B2) (A1) (B2) (B2)
 The electronic state of the initial guess is 1-A1.
 Leave Link  401 at Mon Dec 22 20:06:53 2014, MaxMem=   33554432 cpu:       0.0
 (Enter /users/humeniuka/software/qc/gaussian-09.A02/g09/l502.exe)
 Closed shell SCF:
 Requested convergence on RMS density matrix=1.00D-08 within 128 cycles.
 Requested convergence on MAX density matrix=1.00D-06.
 Requested convergence on             energy=1.00D-06.
 No special actions if energy rises.
 Using DIIS extrapolation, IDIIS=  1040.
 Overlap will be assumed to be unity.
 Two-electron integral symmetry not used.
 Keep J ints in memory in canonical form, NReq=882346.
 IEnd=       80121 IEndB=       80121 NGot=    33554432 MDV=    33489643
 LenX=    33489643 LenY=    33488302
 Symmetry not used in FoFDir.
 MinBra= 0 MaxBra= 1 Meth= 8.
 IRaf=       0 NMat=   1 IRICut=       1 DoRegI=T DoRafI=F ISym2E= 0 JSym2E=0.

 Cycle   1  Pass 1  IDiag  1:
 E= 0.243592932656853    
 DIIS: error= 3.83D-02 at cycle   1 NSaved=   1.
 NSaved= 1 IEnMin= 1 EnMin= 0.243592932656853     IErMin= 1 ErrMin= 3.83D-02
 ErrMax= 3.83D-02 EMaxC= 1.00D-01 BMatC= 7.55D-02 BMatP= 7.55D-02
 IDIUse=3 WtCom= 6.17D-01 WtEn= 3.83D-01
 Coeff-Com:  0.100D+01
 Coeff-En:   0.100D+01
 Coeff:      0.100D+01
 GapD=    2.000 DampG=2.000 DampE=0.500 DampFc=1.0000 IDamp=-1.
 RMSDP=1.16D-02 MaxDP=8.78D-02              OVMax= 0.00D+00

 Cycle   2  Pass 1  IDiag  1:
 E= 0.754227550962980E-01 Delta-E=       -0.168170177561 Rises=F Damp=F
 DIIS: error= 1.05D-02 at cycle   2 NSaved=   2.
 NSaved= 2 IEnMin= 2 EnMin= 0.754227550962980E-01 IErMin= 2 ErrMin= 1.05D-02
 ErrMax= 1.05D-02 EMaxC= 1.00D-01 BMatC= 5.36D-03 BMatP= 7.55D-02
 IDIUse=3 WtCom= 8.95D-01 WtEn= 1.05D-01
 Coeff-Com: -0.349D+00 0.135D+01
 Coeff-En:   0.000D+00 0.100D+01
 Coeff:     -0.313D+00 0.131D+01
 RMSDP=4.30D-03 MaxDP=3.18D-02 DE=-1.68D-01 OVMax= 0.00D+00

 Cycle   3  Pass 1  IDiag  3:
 E= 0.614814958938581E-01 Delta-E=       -0.013941259202 Rises=F Damp=F
 DIIS: error= 7.29D-04 at cycle   3 NSaved=   3.
 NSaved= 3 IEnMin= 3 EnMin= 0.614814958938581E-01 IErMin= 3 ErrMin= 7.29D-04
 ErrMax= 7.29D-04 EMaxC= 1.00D-01 BMatC= 3.64D-05 BMatP= 5.36D-03
 IDIUse=3 WtCom= 9.93D-01 WtEn= 7.29D-03
 Coeff-Com:  0.110D+00-0.484D+00 0.137D+01
 Coeff-En:   0.000D+00 0.000D+00 0.100D+01
 Coeff:      0.109D+00-0.480D+00 0.137D+01
 Gap=     0.371 Goal=   None    Shift=    0.000
 Fock symm off for IB=2 I1=    1 I=   13 J=    4 Cut=1.00D-07 Err=8.14D-04
 Fock matrix is not symmetric: symmetry in diagonalization turned off.
 RMSDP=5.02D-04 MaxDP=2.35D-03 DE=-1.39D-02 OVMax= 0.00D+00

 Cycle   4  Pass 1  IDiag  3:
 E= 0.613460477756860E-01 Delta-E=       -0.000135448118 Rises=F Damp=F
 DIIS: error= 5.86D-05 at cycle   4 NSaved=   4.
 NSaved= 4 IEnMin= 4 EnMin= 0.613460477756860E-01 IErMin= 4 ErrMin= 5.86D-05
 ErrMax= 5.86D-05 EMaxC= 1.00D-01 BMatC= 5.52D-07 BMatP= 3.64D-05
 IDIUse=1 WtCom= 1.00D+00 WtEn= 0.00D+00
 Coeff-Com: -0.452D-01 0.204D+00-0.642D+00 0.148D+01
 Coeff:     -0.452D-01 0.204D+00-0.642D+00 0.148D+01
 Gap=     0.371 Goal=   None    Shift=    0.000
 RMSDP=8.23D-05 MaxDP=3.79D-04 DE=-1.35D-04 OVMax= 0.00D+00

 Cycle   5  Pass 1  IDiag  3:
 E= 0.613432311158704E-01 Delta-E=       -0.000002816660 Rises=F Damp=F
 DIIS: error= 1.72D-05 at cycle   5 NSaved=   5.
 NSaved= 5 IEnMin= 5 EnMin= 0.613432311158704E-01 IErMin= 5 ErrMin= 1.72D-05
 ErrMax= 1.72D-05 EMaxC= 1.00D-01 BMatC= 1.12D-08 BMatP= 5.52D-07
 IDIUse=1 WtCom= 1.00D+00 WtEn= 0.00D+00
 Coeff-Com:  0.706D-02-0.320D-01 0.100D+00-0.286D+00 0.121D+01
 Coeff:      0.706D-02-0.320D-01 0.100D+00-0.286D+00 0.121D+01
 Gap=     0.371 Goal=   None    Shift=    0.000
 RMSDP=9.39D-06 MaxDP=6.72D-05 DE=-2.82D-06 OVMax= 0.00D+00

 Cycle   6  Pass 1  IDiag  3:
 E= 0.613431824306758E-01 Delta-E=       -0.000000048685 Rises=F Damp=F
 DIIS: error= 4.31D-06 at cycle   6 NSaved=   6.
 NSaved= 6 IEnMin= 6 EnMin= 0.613431824306758E-01 IErMin= 6 ErrMin= 4.31D-06
 ErrMax= 4.31D-06 EMaxC= 1.00D-01 BMatC= 6.44D-10 BMatP= 1.12D-08
 IDIUse=1 WtCom= 1.00D+00 WtEn= 0.00D+00
 Coeff-Com: -0.123D-02 0.560D-02-0.167D-01 0.484D-01-0.438D+00 0.140D+01
 Coeff:     -0.123D-02 0.560D-02-0.167D-01 0.484D-01-0.438D+00 0.140D+01
 Gap=     0.371 Goal=   None    Shift=    0.000
 RMSDP=2.55D-06 MaxDP=1.83D-05 DE=-4.87D-08 OVMax= 0.00D+00

 Cycle   7  Pass 1  IDiag  3:
 E= 0.613431797942354E-01 Delta-E=       -0.000000002636 Rises=F Damp=F
 DIIS: error= 2.16D-07 at cycle   7 NSaved=   7.
 NSaved= 7 IEnMin= 7 EnMin= 0.613431797942354E-01 IErMin= 7 ErrMin= 2.16D-07
 ErrMax= 2.16D-07 EMaxC= 1.00D-01 BMatC= 5.27D-12 BMatP= 6.44D-10
 IDIUse=1 WtCom= 1.00D+00 WtEn= 0.00D+00
 Coeff-Com: -0.371D-05 0.541D-05-0.254D-03 0.108D-02 0.608D-01-0.273D+00
 Coeff-Com:  0.121D+01
 Coeff:     -0.371D-05 0.541D-05-0.254D-03 0.108D-02 0.608D-01-0.273D+00
 Coeff:      0.121D+01
 Gap=     0.371 Goal=   None    Shift=    0.000
 RMSDP=2.09D-07 MaxDP=6.86D-07 DE=-2.64D-09 OVMax= 0.00D+00

 Cycle   8  Pass 1  IDiag  3:
 E= 0.613431797741555E-01 Delta-E=       -0.000000000020 Rises=F Damp=F
 DIIS: error= 2.91D-08 at cycle   8 NSaved=   8.
 NSaved= 8 IEnMin= 8 EnMin= 0.613431797741555E-01 IErMin= 8 ErrMin= 2.91D-08
 ErrMax= 2.91D-08 EMaxC= 1.00D-01 BMatC= 4.83D-14 BMatP= 5.27D-12
 IDIUse=1 WtCom= 1.00D+00 WtEn= 0.00D+00
 Coeff-Com:  0.173D-05-0.357D-05 0.983D-04-0.445D-03-0.219D-01 0.993D-01
 Coeff-Com: -0.461D+00 0.138D+01
 Coeff:      0.173D-05-0.357D-05 0.983D-04-0.445D-03-0.219D-01 0.993D-01
 Coeff:     -0.461D+00 0.138D+01
 Gap=     0.371 Goal=   None    Shift=    0.000
 RMSDP=2.93D-08 MaxDP=2.16D-07 DE=-2.01D-11 OVMax= 0.00D+00

 Cycle   9  Pass 1  IDiag  3:
 E= 0.613431797737434E-01 Delta-E=        0.000000000000 Rises=F Damp=F
 DIIS: error= 1.78D-08 at cycle   9 NSaved=   9.
 NSaved= 9 IEnMin= 9 EnMin= 0.613431797737434E-01 IErMin= 9 ErrMin= 1.78D-08
 ErrMax= 1.78D-08 EMaxC= 1.00D-01 BMatC= 7.79D-15 BMatP= 4.83D-14
 IDIUse=1 WtCom= 1.00D+00 WtEn= 0.00D+00
 Coeff-Com: -0.712D-07-0.231D-05-0.475D-04 0.247D-03 0.138D-01-0.622D-01
 Coeff-Com:  0.290D+00-0.101D+01 0.176D+01
 Coeff:     -0.712D-07-0.231D-05-0.475D-04 0.247D-03 0.138D-01-0.622D-01
 Coeff:      0.290D+00-0.101D+01 0.176D+01
 Gap=     0.371 Goal=   None    Shift=    0.000
 RMSDP=2.04D-08 MaxDP=1.76D-07 DE=-4.12D-13 OVMax= 0.00D+00

 Cycle  10  Pass 1  IDiag  3:
 E= 0.613431797737007E-01 Delta-E=        0.000000000000 Rises=F Damp=F
 DIIS: error= 8.50D-09 at cycle  10 NSaved=  10.
 NSaved=10 IEnMin=10 EnMin= 0.613431797737007E-01 IErMin=10 ErrMin= 8.50D-09
 ErrMax= 8.50D-09 EMaxC= 1.00D-01 BMatC= 1.80D-15 BMatP= 7.79D-15
 IDIUse=1 WtCom= 1.00D+00 WtEn= 0.00D+00
 Coeff-Com: -0.899D-06 0.561D-05 0.147D-04-0.112D-03-0.819D-02 0.368D-01
 Coeff-Com: -0.172D+00 0.637D+00-0.179D+01 0.230D+01
 Coeff:     -0.899D-06 0.561D-05 0.147D-04-0.112D-03-0.819D-02 0.368D-01
 Coeff:     -0.172D+00 0.637D+00-0.179D+01 0.230D+01
 Gap=     0.371 Goal=   None    Shift=    0.000
 RMSDP=1.79D-08 MaxDP=1.56D-07 DE=-4.26D-14 OVMax= 0.00D+00

 Cycle  11  Pass 1  IDiag  3:
 E= 0.613431797736439E-01 Delta-E=        0.000000000000 Rises=F Damp=F
 DIIS: error= 5.02D-10 at cycle  11 NSaved=  11.
 NSaved=11 IEnMin=11 EnMin= 0.613431797736439E-01 IErMin=11 ErrMin= 5.02D-10
 ErrMax= 5.02D-10 EMaxC= 1.00D-01 BMatC= 1.92D-17 BMatP= 1.80D-15
 IDIUse=1 WtCom= 1.00D+00 WtEn= 0.00D+00
 Coeff-Com:  0.722D-07-0.406D-06-0.953D-06 0.977D-05 0.491D-03-0.226D-02
 Coeff-Com:  0.110D-01-0.474D-01 0.194D+00-0.335D+00 0.118D+01
 Coeff:      0.722D-07-0.406D-06-0.953D-06 0.977D-05 0.491D-03-0.226D-02
 Coeff:      0.110D-01-0.474D-01 0.194D+00-0.335D+00 0.118D+01
 Gap=     0.371 Goal=   None    Shift=    0.000
 RMSDP=8.22D-10 MaxDP=7.04D-09 DE=-5.68D-14 OVMax= 0.00D+00

 Cycle  12  Pass 2  IDiag  1:
 RMSDP=8.22D-10 MaxDP=7.04D-09 DE=-5.68D-14 OVMax= 0.00D+00

 SCF Done:  E(RAM1) =  0.613431797736E-01 A.U. after   12 cycles
             Convg  =    0.8224D-09             -V/T =  1.0012
 KE=-4.964699082005D+01 PE=-1.693508687359D+02 EE= 9.899904080999D+01
 Leave Link  502 at Mon Dec 22 20:06:54 2014, MaxMem=   33554432 cpu:       0.0
 (Enter /users/humeniuka/software/qc/gaussian-09.A02/g09/l601.exe)
 Copying SCF densities to generalized density rwf, IOpCl= 0 IROHF=0.

 **********************************************************************

            Population analysis using the SCF density.

 **********************************************************************

 Orbital symmetries:
       Occupied  (A1) (A1) (B2) (A1) (B2) (A1) (B2) (A1) (A1) (B2)
                 (B1) (B2) (A1) (B1) (A2)
       Virtual   (B1) (A2) (A2) (B2) (A1) (B2) (A1) (B2) (A1) (A1)
                 (B2) (B2) (A1) (B2) (B2)
 The electronic state is 1-A1.
 Alpha  occ. eigenvalues --   -1.43952  -1.16600  -1.16600  -0.86301  -0.86301
 Alpha  occ. eigenvalues --   -0.66821  -0.61844  -0.56638  -0.52920  -0.52920
 Alpha  occ. eigenvalues --   -0.48886  -0.44588  -0.44588  -0.35515  -0.35515
 Alpha virt. eigenvalues --    0.01570   0.01570   0.10380   0.15598   0.15598
 Alpha virt. eigenvalues --    0.15827   0.17001   0.17001   0.17165   0.19589
 Alpha virt. eigenvalues --    0.19589   0.20568   0.20869   0.20869   0.22584
          Condensed to atoms (all electrons):
              1          2          3          4          5          6
     1  C    4.125230   0.000000   0.000000   0.000000   0.000000   0.000000
     2  C    0.000000   4.125231   0.000000   0.000000   0.000000   0.000000
     3  C    0.000000   0.000000   4.125231   0.000000   0.000000   0.000000
     4  C    0.000000   0.000000   0.000000   4.125230   0.000000   0.000000
     5  C    0.000000   0.000000   0.000000   0.000000   4.125230   0.000000
     6  C    0.000000   0.000000   0.000000   0.000000   0.000000   4.125230
     7  H    0.000000   0.000000   0.000000   0.000000   0.000000   0.000000
     8  H    0.000000   0.000000   0.000000   0.000000   0.000000   0.000000
     9  H    0.000000   0.000000   0.000000   0.000000   0.000000   0.000000
    10  H    0.000000   0.000000   0.000000   0.000000   0.000000   0.000000
    11  H    0.000000   0.000000   0.000000   0.000000   0.000000   0.000000
    12  H    0.000000   0.000000   0.000000   0.000000   0.000000   0.000000
              7          8          9         10         11         12
     1  C    0.000000   0.000000   0.000000   0.000000   0.000000   0.000000
     2  C    0.000000   0.000000   0.000000   0.000000   0.000000   0.000000
     3  C    0.000000   0.000000   0.000000   0.000000   0.000000   0.000000
     4  C    0.000000   0.000000   0.000000   0.000000   0.000000   0.000000
     5  C    0.000000   0.000000   0.000000   0.000000   0.000000   0.000000
     6  C    0.000000   0.000000   0.000000   0.000000   0.000000   0.000000
     7  H    0.874769   0.000000   0.000000   0.000000   0.000000   0.000000
     8  H    0.000000   0.874769   0.000000   0.000000   0.000000   0.000000
     9  H    0.000000   0.000000   0.874769   0.000000   0.000000   0.000000
    10  H    0.000000   0.000000   0.000000   0.874769   0.000000   0.000000
    11  H    0.000000   0.000000   0.000000   0.000000   0.874770   0.000000
    12  H    0.000000   0.000000   0.000000   0.000000   0.000000   0.874770
 Mulliken atomic charges:
              1
     1  C   -0.125230
     2  C   -0.125231
     3  C   -0.125231
     4  C   -0.125230
     5  C   -0.125230
     6  C   -0.125230
     7  H    0.125231
     8  H    0.125231
     9  H    0.125231
    10  H    0.125231
    11  H    0.125230
    12  H    0.125230
 Sum of Mulliken atomic charges =   0.00000
 Mulliken charges with hydrogens summed into heavy atoms:
              1
     1  C    0.000000
     2  C    0.000000
     3  C    0.000000
     4  C    0.000000
     5  C    0.000000
     6  C    0.000000
 Sum of Mulliken charges with hydrogens summed into heavy atoms =   0.00000
 Charge=              0.0000 electrons
 Dipole moment (field-independent basis, Debye):
    X=              0.0000    Y=              0.0000    Z=              0.0000  Tot=              0.0000
 N-N= 1.200601619258D+02 E-N=-1.693508687334D+02  KE=-4.964699082005D+01
 Leave Link  601 at Mon Dec 22 20:06:54 2014, MaxMem=   33554432 cpu:       0.0
 (Enter /users/humeniuka/software/qc/gaussian-09.A02/g09/l701.exe)
 Compute integral first derivatives.
 ... and contract with generalized density number  0.
 Leave Link  701 at Mon Dec 22 20:06:54 2014, MaxMem=   33554432 cpu:       0.1
 (Enter /users/humeniuka/software/qc/gaussian-09.A02/g09/l702.exe)
 L702 exits ... SP integral derivatives will be done elsewhere.
 Leave Link  702 at Mon Dec 22 20:06:54 2014, MaxMem=   33554432 cpu:       0.0
 (Enter /users/humeniuka/software/qc/gaussian-09.A02/g09/l703.exe)
 Compute integral first derivatives, UseDBF=F ICtDFT=           0.
 Integral derivatives from FoFDir, PRISM(SPDF).
 Calling FoFJK, ICntrl=      2127 FMM=F ISym2X=1 I1Cent= 0 IOpClX= 0 NMat=1 NMatS=1 NMatT=0.
 FoFCou: FMM=F IPFlag=           0 FMFlag=      100000 FMFlg1=         800
         NFxFlg=           0 DoJE=F BraDBF=F KetDBF=F FulRan=T
         Omega=  0.000000  0.000000  1.000000  0.000000  0.000000 ICntrl=    2127 IOpCl=  0
         NMat0=    1 NMatS0=    1 NMatT0=    0 NMatD0=    1 NMtDS0=    0 NMtDT0=    0
         I1Cent=           0 NGrid=           0.
 Symmetry not used in FoFCou.
 Leave Link  703 at Mon Dec 22 20:06:55 2014, MaxMem=   33554432 cpu:       0.0
 (Enter /users/humeniuka/software/qc/gaussian-09.A02/g09/l716.exe)
 Dipole        =-5.32829656D-16-7.99360578D-15 1.90584852D-06
 ***** Axes restored to original set *****
 -------------------------------------------------------------------
 Center     Atomic                   Forces (Hartrees/Bohr)
 Number     Number              X              Y              Z
 -------------------------------------------------------------------
      1        6           0.073401549   -0.000005517    0.000000000
      2        6           0.036701216    0.063573281    0.000000000
      3        6          -0.036701216    0.063573281    0.000000000
      4        6          -0.073401549   -0.000005517    0.000000000
      5        6          -0.036700115   -0.063568342    0.000000000
      6        6           0.036700115   -0.063568342    0.000000000
      7        1          -0.061549417   -0.000000196    0.000000000
      8        1          -0.030776536   -0.053305056    0.000000000
      9        1           0.030776536   -0.053305056    0.000000000
     10        1           0.061549417   -0.000000196    0.000000000
     11        1           0.030776256    0.053305830    0.000000000
     12        1          -0.030776256    0.053305830    0.000000000
 -------------------------------------------------------------------
 Cartesian Forces:  Max     0.073401549 RMS     0.039107974
 Leave Link  716 at Mon Dec 22 20:06:55 2014, MaxMem=   33554432 cpu:       0.0
 (Enter /users/humeniuka/software/qc/gaussian-09.A02/g09/l103.exe)

 GradGradGradGradGradGradGradGradGradGradGradGradGradGradGradGradGradGrad
 Berny optimization.
 Internal  Forces:  Max     0.061552331 RMS     0.020893971
 Search for a local minimum.
 Step number   1 out of a maximum of   64
 All quantities printed in internal units (Hartrees-Bohrs-Radians)
 RMS Force = .20894D-01 SwitMx=.10000D-02 MixMth= 1
 Mixed Optimization -- RFO/linear search
 Second derivative matrix not updated -- first step.
     Eigenvalues ---    0.01982   0.01982   0.01982   0.01982   0.01982
     Eigenvalues ---    0.01982   0.01982   0.01982   0.01982   0.16000
     Eigenvalues ---    0.16000   0.16000   0.16000   0.16000   0.16000
     Eigenvalues ---    0.22000   0.22000   0.22000   0.40407   0.40407
     Eigenvalues ---    0.43953   0.43953   0.43953   0.43953   0.43953
     Eigenvalues ---    0.43953   0.44306   0.44307   0.44307   0.44308
     Eigenvalues --- 1000.000001000.000001000.000001000.000001000.00000
     Eigenvalues --- 1000.000001000.000001000.000001000.000001000.00000
     Eigenvalues --- 1000.000001000.000001000.000001000.000001000.00000
     Eigenvalues --- 1000.000001000.000001000.000001000.000001000.00000
     Eigenvalues --- 1000.000001000.000001000.000001000.00000
 RFO step:  Lambda=-4.83110172D-02 EMin= 1.98181519D-02
 Linear search not attempted -- first point.
 Maximum step size (   0.300) exceeded in Quadratic search.
    -- Step size scaled by   0.953
 Iteration  1 RMS(Cart)=  0.03332660 RMS(Int)=  0.00000008
 Iteration  2 RMS(Cart)=  0.00000012 RMS(Int)=  0.00000001
 ClnCor:  largest displacement from symmetrization is 4.31D-13 for atom    11.
 Variable       Old X    -DE/DX   Delta X   Delta X   Delta X     New X
                                 (Linear)    (Quad)   (Total)
    R1        2.66090  -0.01186   0.00000  -0.02301  -0.02301   2.63789
    R2        2.66088  -0.01185   0.00000  -0.02299  -0.02299   2.63789
    R3        1.93211   0.06155   0.00000   0.12029   0.12029   2.05241
    R4        2.66089  -0.01185   0.00000  -0.02300  -0.02300   2.63789
    R5        1.93211   0.06155   0.00000   0.12030   0.12030   2.05240
    R6        2.66090  -0.01186   0.00000  -0.02301  -0.02301   2.63789
    R7        1.93211   0.06155   0.00000   0.12030   0.12030   2.05240
    R8        2.66088  -0.01185   0.00000  -0.02299  -0.02299   2.63789
    R9        1.93211   0.06155   0.00000   0.12029   0.12029   2.05241
   R10        2.66089  -0.01185   0.00000  -0.02299  -0.02299   2.63790
   R11        1.93211   0.06155   0.00000   0.12030   0.12030   2.05241
   R12        1.93211   0.06155   0.00000   0.12030   0.12030   2.05241
    A1        2.09440   0.00000   0.00000   0.00000   0.00000   2.09440
    A2        2.09439   0.00000   0.00000   0.00000   0.00000   2.09439
    A3        2.09440   0.00000   0.00000   0.00000   0.00000   2.09440
    A4        2.09439   0.00000   0.00000   0.00000   0.00000   2.09440
    A5        2.09440   0.00000   0.00000  -0.00001  -0.00001   2.09440
    A6        2.09439   0.00000   0.00000   0.00000   0.00000   2.09439
    A7        2.09439   0.00000   0.00000   0.00000   0.00000   2.09440
    A8        2.09439   0.00000   0.00000   0.00000   0.00000   2.09439
    A9        2.09440   0.00000   0.00000  -0.00001  -0.00001   2.09440
   A10        2.09440   0.00000   0.00000   0.00000   0.00000   2.09440
   A11        2.09439   0.00000   0.00000   0.00000   0.00000   2.09439
   A12        2.09440   0.00000   0.00000   0.00000   0.00000   2.09440
   A13        2.09440   0.00000   0.00000   0.00000   0.00000   2.09439
   A14        2.09440   0.00000   0.00000   0.00000   0.00000   2.09440
   A15        2.09439   0.00000   0.00000   0.00000   0.00000   2.09439
   A16        2.09440   0.00000   0.00000   0.00000   0.00000   2.09439
   A17        2.09440   0.00000   0.00000   0.00000   0.00000   2.09440
   A18        2.09439   0.00000   0.00000   0.00000   0.00000   2.09439
    D1        0.00000   0.00000   0.00000   0.00000   0.00000   0.00000
    D2        3.14159   0.00000   0.00000   0.00000   0.00000   3.14159
    D3        3.14159   0.00000   0.00000   0.00000   0.00000   3.14159
    D4        0.00000   0.00000   0.00000   0.00000   0.00000   0.00000
    D5        0.00000   0.00000   0.00000   0.00000   0.00000   0.00000
    D6        3.14159   0.00000   0.00000   0.00000   0.00000   3.14159
    D7        3.14159   0.00000   0.00000   0.00000   0.00000   3.14159
    D8        0.00000   0.00000   0.00000   0.00000   0.00000   0.00000
    D9        0.00000   0.00000   0.00000   0.00000   0.00000   0.00000
   D10        3.14159   0.00000   0.00000   0.00000   0.00000   3.14159
   D11        3.14159   0.00000   0.00000   0.00000   0.00000   3.14159
   D12        0.00000   0.00000   0.00000   0.00000   0.00000   0.00000
   D13        0.00000   0.00000   0.00000   0.00000   0.00000   0.00000
   D14        3.14159   0.00000   0.00000   0.00000   0.00000   3.14159
   D15        3.14159   0.00000   0.00000   0.00000   0.00000   3.14159
   D16        0.00000   0.00000   0.00000   0.00000   0.00000   0.00000
   D17        0.00000   0.00000   0.00000   0.00000   0.00000   0.00000
   D18        3.14159   0.00000   0.00000   0.00000   0.00000   3.14159
   D19        3.14159   0.00000   0.00000   0.00000   0.00000   3.14159
   D20        0.00000   0.00000   0.00000   0.00000   0.00000   0.00000
   D21        0.00000   0.00000   0.00000   0.00000   0.00000   0.00000
   D22        3.14159   0.00000   0.00000   0.00000   0.00000   3.14159
   D23        3.14159   0.00000   0.00000   0.00000   0.00000   3.14159
   D24        0.00000   0.00000   0.00000   0.00000   0.00000   0.00000
         Item               Value     Threshold  Converged?
 Maximum Force            0.061552     0.000450     NO 
 RMS     Force            0.020894     0.000300     NO 
 Maximum Displacement     0.097299     0.001800     NO 
 RMS     Displacement     0.033327     0.001200     NO 
 Predicted change in Energy=-2.627713D-02
 GradGradGradGradGradGradGradGradGradGradGradGradGradGradGradGradGradGrad

 Leave Link  103 at Mon Dec 22 20:06:55 2014, MaxMem=   33554432 cpu:       0.0
 (Enter /users/humeniuka/software/qc/gaussian-09.A02/g09/l202.exe)
                          Input orientation:                          
 ---------------------------------------------------------------------
 Center     Atomic      Atomic             Coordinates (Angstroms)
 Number     Number       Type             X           Y           Z
 ---------------------------------------------------------------------
      1          6           0       -0.700912    1.203778    0.000000
      2          6           0       -0.002955   -0.005118    0.000000
      3          6           0        1.392955   -0.005118    0.000000
      4          6           0        2.090912    1.203778    0.000000
      5          6           0        1.392957    2.412671    0.000000
      6          6           0       -0.002957    2.412671    0.000000
      7          1           0       -1.786998    1.203774    0.000000
      8          1           0       -0.545997   -0.945696    0.000000
      9          1           0        1.935997   -0.945696    0.000000
     10          1           0        3.176998    1.203774    0.000000
     11          1           0        1.935998    3.353251    0.000000
     12          1           0       -0.545998    3.353251    0.000000
 ---------------------------------------------------------------------
                    Distance matrix (angstroms):
                    1          2          3          4          5
     1  C    0.000000
     2  C    1.395912   0.000000
     3  C    2.417790   1.395911   0.000000
     4  C    2.791824   2.417790   1.395912   0.000000
     5  C    2.417791   2.791823   2.417789   1.395910   0.000000
     6  C    1.395910   2.417789   2.791823   2.417791   1.395914
     7  H    1.086086   2.155047   3.401988   3.877910   3.401992
     8  H    2.155049   1.086086   2.155046   3.401988   3.877909
     9  H    3.401988   2.155046   1.086086   2.155049   3.401988
    10  H    3.877910   3.401988   2.155047   1.086086   2.155049
    11  H    3.401989   3.877909   3.401990   2.155048   1.086086
    12  H    2.155048   3.401990   3.877909   3.401989   2.155049
                    6          7          8          9         10
     6  C    0.000000
     7  H    2.155049   0.000000
     8  H    3.401988   2.481997   0.000000
     9  H    3.877909   4.298944   2.481994   0.000000
    10  H    3.401992   4.963997   4.298944   2.481997   0.000000
    11  H    2.155049   4.298948   4.963995   4.298947   2.482001
    12  H    1.086086   2.482001   4.298947   4.963995   4.298948
                   11         12
    11  H    0.000000
    12  H    2.481997   0.000000
 Stoichiometry    C6H6
 Framework group  C2V[SGV(C6H6)]
 Deg. of freedom    11
 Full point group                 C2V     NOp   4
 Largest Abelian subgroup         C2V     NOp   4
 Largest concise Abelian subgroup C2      NOp   2
                         Standard orientation:                         
 ---------------------------------------------------------------------
 Center     Atomic      Atomic             Coordinates (Angstroms)
 Number     Number       Type             X           Y           Z
 ---------------------------------------------------------------------
      1          6           0        0.000000    1.395912    0.000001
      2          6           0        0.000000    0.697955   -1.208895
      3          6           0        0.000000   -0.697955   -1.208895
      4          6           0        0.000000   -1.395912    0.000001
      5          6           0        0.000000   -0.697957    1.208894
      6          6           0        0.000000    0.697957    1.208894
      7          1           0        0.000000    2.481998   -0.000003
      8          1           0        0.000000    1.240997   -2.149473
      9          1           0        0.000000   -1.240997   -2.149473
     10          1           0        0.000000   -2.481998   -0.000003
     11          1           0        0.000000   -1.240998    2.149474
     12          1           0        0.000000    1.240998    2.149474
 ---------------------------------------------------------------------
 Rotational constants (GHZ):      5.6928711      5.6928669      2.8464345
 Leave Link  202 at Mon Dec 22 20:06:55 2014, MaxMem=   33554432 cpu:       0.0
 (Enter /users/humeniuka/software/qc/gaussian-09.A02/g09/l301.exe)
 Standard basis: VSTO-6G (5D, 7F)
 Ernie: Thresh=  0.10000D-02 Tol=  0.10000D-05 Strict=F.
  NNHCO=     0 NNPyr=     0 NCTC=     0               EPep=         0.000000000
    EC=        85.932564149  ECS=         2.315209656   EG=         0.202019727
   EHC=         0.000000000  EAt=       -29.152259586  AtH=         2.132162249
 EPDDG=         0.000000000  ECC=        88.449793532 EAtT=        31.284421835
 There are    12 symmetry adapted basis functions of A1  symmetry.
 There are     3 symmetry adapted basis functions of A2  symmetry.
 There are     3 symmetry adapted basis functions of B1  symmetry.
 There are    12 symmetry adapted basis functions of B2  symmetry.
 Integral buffers will be    131072 words long.
 Regular integral format.
 Two-electron integral symmetry is turned off.
    30 basis functions,   180 primitive gaussians,    30 cartesian basis functions
    15 alpha electrons       15 beta electrons
       nuclear repulsion energy       119.7342153670 Hartrees.
 IExCor=    0 DFT=F Ex=HF Corr=None ExCW=0 ScaHFX=  1.000000
 ScaDFX=  1.000000  1.000000  1.000000  1.000000 ScalE2=  1.000000  1.000000
 IRadAn=      0 IRanWt=     -1 IRanGd=            0 ICorTp=0
 Leave Link  301 at Mon Dec 22 20:06:55 2014, MaxMem=   33554432 cpu:       0.0
 (Enter /users/humeniuka/software/qc/gaussian-09.A02/g09/l302.exe)
 Do NDO integrals.
 NPDir=0 NMtPBC=     1 NCelOv=     1 NCel=       1 NClECP=     1 NCelD=      1
         NCelK=      1 NCelE2=     1 NClLst=     1 CellRange=     0.0.
 One-electron integrals computed using PRISM.
 NBasis=    30 RedAO= F  NBF=    12     3     3    12
 NBsUse=    30 1.00D-04 NBFU=    12     3     3    12
 Leave Link  302 at Mon Dec 22 20:06:55 2014, MaxMem=   33554432 cpu:       0.1
 (Enter /users/humeniuka/software/qc/gaussian-09.A02/g09/l303.exe)
 DipDrv:  MaxL=1.
 Leave Link  303 at Mon Dec 22 20:06:55 2014, MaxMem=   33554432 cpu:       0.0
 (Enter /users/humeniuka/software/qc/gaussian-09.A02/g09/l401.exe)
 Initial guess read from the read-write file.
 B after Tr=     0.000000    0.000000    0.000000
         Rot=    1.000000    0.000000    0.000000    0.000000 Ang=   0.00 deg.
 Guess basis will be translated and rotated to current coordinates.
 Initial guess orbital symmetries:
       Occupied  (A1) (A1) (B2) (A1) (B2) (A1) (B2) (A1) (A1) (B2)
                 (B1) (B2) (A1) (B1) (A2)
       Virtual   (B1) (A2) (A2) (B2) (A1) (B2) (A1) (B2) (A1) (A1)
                 (B2) (B2) (A1) (B2) (B2)
 The electronic state of the initial guess is 1-A1.
 Leave Link  401 at Mon Dec 22 20:06:55 2014, MaxMem=   33554432 cpu:       0.1
 (Enter /users/humeniuka/software/qc/gaussian-09.A02/g09/l502.exe)
 Closed shell SCF:
 Requested convergence on RMS density matrix=1.00D-08 within 128 cycles.
 Requested convergence on MAX density matrix=1.00D-06.
 Requested convergence on             energy=1.00D-06.
 No special actions if energy rises.
 Using DIIS extrapolation, IDIIS=  1040.
 Overlap will be assumed to be unity.
 Two-electron integral symmetry not used.
 Keep J ints in memory in canonical form, NReq=882346.
 IEnd=       80121 IEndB=       80121 NGot=    33554432 MDV=    33489643
 LenX=    33489643 LenY=    33488302
 Symmetry not used in FoFDir.
 MinBra= 0 MaxBra= 1 Meth= 8.
 IRaf=       0 NMat=   1 IRICut=       1 DoRegI=T DoRafI=F ISym2E= 0 JSym2E=0.

 Cycle   1  Pass 1  IDiag  1:
 E=  4.46837746169423    
 DIIS: error= 7.27D-02 at cycle   1 NSaved=   1.
 NSaved= 1 IEnMin= 1 EnMin=  4.46837746169423     IErMin= 1 ErrMin= 7.27D-02
 ErrMax= 7.27D-02 EMaxC= 1.00D-01 BMatC= 3.28D-01 BMatP= 3.28D-01
 IDIUse=3 WtCom= 2.73D-01 WtEn= 7.27D-01
 Coeff-Com:  0.100D+01
 Coeff-En:   0.100D+01
 Coeff:      0.100D+01
 GapD=    2.000 DampG=2.000 DampE=0.500 DampFc=1.0000 IDamp=-1.
 RMSDP=7.84D-02 MaxDP=4.95D-01              OVMax= 0.00D+00

 Cycle   2  Pass 1  IDiag  1:
 E= 0.608160065151935     Delta-E=       -3.860217396542 Rises=F Damp=F
 DIIS: error= 5.07D-02 at cycle   2 NSaved=   2.
 NSaved= 2 IEnMin= 2 EnMin= 0.608160065151935     IErMin= 2 ErrMin= 5.07D-02
 ErrMax= 5.07D-02 EMaxC= 1.00D-01 BMatC= 1.22D-01 BMatP= 3.28D-01
 IDIUse=3 WtCom= 4.93D-01 WtEn= 5.07D-01
 Coeff-Com: -0.120D+00 0.112D+01
 Coeff-En:   0.000D+00 0.100D+01
 Coeff:     -0.594D-01 0.106D+01
 RMSDP=2.50D-02 MaxDP=1.33D-01 DE=-3.86D+00 OVMax= 0.00D+00

 Cycle   3  Pass 1  IDiag  1:
 E= 0.101934543435704     Delta-E=       -0.506225521716 Rises=F Damp=F
 DIIS: error= 1.74D-02 at cycle   3 NSaved=   3.
 NSaved= 3 IEnMin= 3 EnMin= 0.101934543435704     IErMin= 3 ErrMin= 1.74D-02
 ErrMax= 1.74D-02 EMaxC= 1.00D-01 BMatC= 1.48D-02 BMatP= 1.22D-01
 IDIUse=3 WtCom= 8.26D-01 WtEn= 1.74D-01
 Coeff-Com:  0.597D-01-0.533D+00 0.147D+01
 Coeff-En:   0.000D+00 0.000D+00 0.100D+01
 Coeff:      0.494D-01-0.440D+00 0.139D+01
 RMSDP=1.08D-02 MaxDP=4.87D-02 DE=-5.06D-01 OVMax= 0.00D+00

 Cycle   4  Pass 1  IDiag  3:
 E= 0.381811598957569E-01 Delta-E=       -0.063753383540 Rises=F Damp=F
 DIIS: error= 2.64D-03 at cycle   4 NSaved=   4.
 NSaved= 4 IEnMin= 4 EnMin= 0.381811598957569E-01 IErMin= 4 ErrMin= 2.64D-03
 ErrMax= 2.64D-03 EMaxC= 1.00D-01 BMatC= 4.94D-04 BMatP= 1.48D-02
 IDIUse=3 WtCom= 9.74D-01 WtEn= 2.64D-02
 Coeff-Com: -0.161D-01 0.207D+00-0.724D+00 0.153D+01
 Coeff-En:   0.000D+00 0.000D+00 0.000D+00 0.100D+01
 Coeff:     -0.156D-01 0.201D+00-0.705D+00 0.152D+01
 Gap=     0.375 Goal=   None    Shift=    0.000
 Fock symm off for IB=2 I1=    1 I=   13 J=    4 Cut=1.00D-07 Err=1.66D-03
 Fock matrix is not symmetric: symmetry in diagonalization turned off.
 RMSDP=2.37D-03 MaxDP=1.15D-02 DE=-6.38D-02 OVMax= 0.00D+00

 Cycle   5  Pass 1  IDiag  3:
 E= 0.357321845098681E-01 Delta-E=       -0.002448975386 Rises=F Damp=F
 DIIS: error= 3.34D-04 at cycle   5 NSaved=   5.
 NSaved= 5 IEnMin= 5 EnMin= 0.357321845098681E-01 IErMin= 5 ErrMin= 3.34D-04
 ErrMax= 3.34D-04 EMaxC= 1.00D-01 BMatC= 9.90D-06 BMatP= 4.94D-04
 IDIUse=3 WtCom= 9.97D-01 WtEn= 3.34D-03
 Coeff-Com:  0.259D-02-0.355D-01 0.129D+00-0.390D+00 0.129D+01
 Coeff-En:   0.000D+00 0.000D+00 0.000D+00 0.000D+00 0.100D+01
 Coeff:      0.258D-02-0.354D-01 0.129D+00-0.388D+00 0.129D+01
 Gap=     0.375 Goal=   None    Shift=    0.000
 RMSDP=3.46D-04 MaxDP=2.43D-03 DE=-2.45D-03 OVMax= 0.00D+00

 Cycle   6  Pass 1  IDiag  3:
 E= 0.356825223267947E-01 Delta-E=       -0.000049662183 Rises=F Damp=F
 DIIS: error= 6.83D-05 at cycle   6 NSaved=   6.
 NSaved= 6 IEnMin= 6 EnMin= 0.356825223267947E-01 IErMin= 6 ErrMin= 6.83D-05
 ErrMax= 6.83D-05 EMaxC= 1.00D-01 BMatC= 3.20D-07 BMatP= 9.90D-06
 IDIUse=1 WtCom= 1.00D+00 WtEn= 0.00D+00
 Coeff-Com:  0.106D-03 0.197D-02-0.788D-02 0.486D-01-0.347D+00 0.130D+01
 Coeff:      0.106D-03 0.197D-02-0.788D-02 0.486D-01-0.347D+00 0.130D+01
 Gap=     0.375 Goal=   None    Shift=    0.000
 RMSDP=5.78D-05 MaxDP=4.74D-04 DE=-4.97D-05 OVMax= 0.00D+00

 Cycle   7  Pass 1  IDiag  3:
 E= 0.356810062499022E-01 Delta-E=       -0.000001516077 Rises=F Damp=F
 DIIS: error= 1.16D-05 at cycle   7 NSaved=   7.
 NSaved= 7 IEnMin= 7 EnMin= 0.356810062499022E-01 IErMin= 7 ErrMin= 1.16D-05
 ErrMax= 1.16D-05 EMaxC= 1.00D-01 BMatC= 1.11D-08 BMatP= 3.20D-07
 IDIUse=1 WtCom= 1.00D+00 WtEn= 0.00D+00
 Coeff-Com:  0.319D-05-0.715D-03 0.227D-02-0.156D-01 0.118D+00-0.530D+00
 Coeff-Com:  0.143D+01
 Coeff:      0.319D-05-0.715D-03 0.227D-02-0.156D-01 0.118D+00-0.530D+00
 Coeff:      0.143D+01
 Gap=     0.375 Goal=   None    Shift=    0.000
 RMSDP=1.27D-05 MaxDP=1.04D-04 DE=-1.52D-06 OVMax= 0.00D+00

 Cycle   8  Pass 1  IDiag  3:
 E= 0.356809439724657E-01 Delta-E=       -0.000000062277 Rises=F Damp=F
 DIIS: error= 2.07D-06 at cycle   8 NSaved=   8.
 NSaved= 8 IEnMin= 8 EnMin= 0.356809439724657E-01 IErMin= 8 ErrMin= 2.07D-06
 ErrMax= 2.07D-06 EMaxC= 1.00D-01 BMatC= 4.38D-10 BMatP= 1.11D-08
 IDIUse=1 WtCom= 1.00D+00 WtEn= 0.00D+00
 Coeff-Com:  0.227D-06 0.119D-03-0.227D-03 0.367D-02-0.330D-01 0.161D+00
 Coeff-Com: -0.567D+00 0.144D+01
 Coeff:      0.227D-06 0.119D-03-0.227D-03 0.367D-02-0.330D-01 0.161D+00
 Coeff:     -0.567D+00 0.144D+01
 Gap=     0.375 Goal=   None    Shift=    0.000
 RMSDP=2.63D-06 MaxDP=1.65D-05 DE=-6.23D-08 OVMax= 0.00D+00

 Cycle   9  Pass 1  IDiag  3:
 E= 0.356809415630011E-01 Delta-E=       -0.000000002409 Rises=F Damp=F
 DIIS: error= 3.21D-07 at cycle   9 NSaved=   9.
 NSaved= 9 IEnMin= 9 EnMin= 0.356809415630011E-01 IErMin= 9 ErrMin= 3.21D-07
 ErrMax= 3.21D-07 EMaxC= 1.00D-01 BMatC= 1.23D-11 BMatP= 4.38D-10
 IDIUse=1 WtCom= 1.00D+00 WtEn= 0.00D+00
 Coeff-Com: -0.364D-06 0.418D-05-0.878D-04-0.518D-03 0.667D-02-0.353D-01
 Coeff-Com:  0.146D+00-0.483D+00 0.137D+01
 Coeff:     -0.364D-06 0.418D-05-0.878D-04-0.518D-03 0.667D-02-0.353D-01
 Coeff:      0.146D+00-0.483D+00 0.137D+01
 Gap=     0.375 Goal=   None    Shift=    0.000
 RMSDP=3.67D-07 MaxDP=1.61D-06 DE=-2.41D-09 OVMax= 0.00D+00

 Cycle  10  Pass 1  IDiag  3:
 E= 0.356809415051202E-01 Delta-E=       -0.000000000058 Rises=F Damp=F
 DIIS: error= 4.75D-08 at cycle  10 NSaved=  10.
 NSaved=10 IEnMin=10 EnMin= 0.356809415051202E-01 IErMin=10 ErrMin= 4.75D-08
 ErrMax= 4.75D-08 EMaxC= 1.00D-01 BMatC= 2.99D-13 BMatP= 1.23D-11
 IDIUse=1 WtCom= 1.00D+00 WtEn= 0.00D+00
 Coeff-Com:  0.805D-07-0.465D-05 0.338D-04 0.626D-04-0.117D-02 0.636D-02
 Coeff-Com: -0.292D-01 0.109D+00-0.424D+00 0.134D+01
 Coeff:      0.805D-07-0.465D-05 0.338D-04 0.626D-04-0.117D-02 0.636D-02
 Coeff:     -0.292D-01 0.109D+00-0.424D+00 0.134D+01
 Gap=     0.375 Goal=   None    Shift=    0.000
 RMSDP=5.78D-08 MaxDP=2.23D-07 DE=-5.79D-11 OVMax= 0.00D+00

 Cycle  11  Pass 1  IDiag  3:
 E= 0.356809415036565E-01 Delta-E=       -0.000000000001 Rises=F Damp=F
 DIIS: error= 1.58D-08 at cycle  11 NSaved=  11.
 NSaved=11 IEnMin=11 EnMin= 0.356809415036565E-01 IErMin=11 ErrMin= 1.58D-08
 ErrMax= 1.58D-08 EMaxC= 1.00D-01 BMatC= 1.07D-14 BMatP= 2.99D-13
 IDIUse=1 WtCom= 1.00D+00 WtEn= 0.00D+00
 Coeff-Com: -0.589D-08 0.920D-06-0.674D-05-0.176D-04 0.271D-03-0.136D-02
 Coeff-Com:  0.622D-02-0.239D-01 0.106D+00-0.441D+00 0.135D+01
 Coeff:     -0.589D-08 0.920D-06-0.674D-05-0.176D-04 0.271D-03-0.136D-02
 Coeff:      0.622D-02-0.239D-01 0.106D+00-0.441D+00 0.135D+01
 Gap=     0.375 Goal=   None    Shift=    0.000
 RMSDP=1.38D-08 MaxDP=1.06D-07 DE=-1.46D-12 OVMax= 0.00D+00

 Cycle  12  Pass 1  IDiag  3:
 E= 0.356809415036565E-01 Delta-E=        0.000000000000 Rises=F Damp=F
 DIIS: error= 7.90D-09 at cycle  12 NSaved=  12.
 NSaved=12 IEnMin=11 EnMin= 0.356809415036565E-01 IErMin=12 ErrMin= 7.90D-09
 ErrMax= 7.90D-09 EMaxC= 1.00D-01 BMatC= 1.43D-15 BMatP= 1.07D-14
 IDIUse=1 WtCom= 1.00D+00 WtEn= 0.00D+00
 Coeff-Com:  0.504D-09-0.632D-07 0.679D-06 0.587D-05-0.614D-04 0.255D-03
 Coeff-Com: -0.110D-02 0.442D-02-0.240D-01 0.134D+00-0.692D+00 0.158D+01
 Coeff:      0.504D-09-0.632D-07 0.679D-06 0.587D-05-0.614D-04 0.255D-03
 Coeff:     -0.110D-02 0.442D-02-0.240D-01 0.134D+00-0.692D+00 0.158D+01
 Gap=     0.375 Goal=   None    Shift=    0.000
 RMSDP=7.90D-09 MaxDP=7.05D-08 DE= 0.00D+00 OVMax= 0.00D+00

 Cycle  13  Pass 2  IDiag  1:
 RMSDP=7.90D-09 MaxDP=7.05D-08 DE= 0.00D+00 OVMax= 0.00D+00

 SCF Done:  E(RAM1) =  0.356809415037E-01 A.U. after   13 cycles
             Convg  =    0.7903D-08             -V/T =  1.0007
 KE=-4.957789885244D+01 PE=-1.690227506068D+02 EE= 9.890211503374D+01
 Leave Link  502 at Mon Dec 22 20:06:55 2014, MaxMem=   33554432 cpu:       0.0
 (Enter /users/humeniuka/software/qc/gaussian-09.A02/g09/l701.exe)
 Compute integral first derivatives.
 ... and contract with generalized density number  0.
 Leave Link  701 at Mon Dec 22 20:06:55 2014, MaxMem=   33554432 cpu:       0.1
 (Enter /users/humeniuka/software/qc/gaussian-09.A02/g09/l702.exe)
 L702 exits ... SP integral derivatives will be done elsewhere.
 Leave Link  702 at Mon Dec 22 20:06:55 2014, MaxMem=   33554432 cpu:       0.0
 (Enter /users/humeniuka/software/qc/gaussian-09.A02/g09/l703.exe)
 Compute integral first derivatives, UseDBF=F ICtDFT=           0.
 Integral derivatives from FoFDir, PRISM(SPDF).
 Calling FoFJK, ICntrl=      2127 FMM=F ISym2X=1 I1Cent= 0 IOpClX= 0 NMat=1 NMatS=1 NMatT=0.
 FoFCou: FMM=F IPFlag=           0 FMFlag=      100000 FMFlg1=         800
         NFxFlg=           0 DoJE=F BraDBF=F KetDBF=F FulRan=T
         Omega=  0.000000  0.000000  1.000000  0.000000  0.000000 ICntrl=    2127 IOpCl=  0
         NMat0=    1 NMatS0=    1 NMatT0=    0 NMatD0=    1 NMtDS0=    0 NMtDT0=    0
         I1Cent=           0 NGrid=           0.
 Symmetry not used in FoFCou.
 Leave Link  703 at Mon Dec 22 20:06:55 2014, MaxMem=   33554432 cpu:       0.0
 (Enter /users/humeniuka/software/qc/gaussian-09.A02/g09/l716.exe)
 Dipole        =-3.38778487D-16-1.15463195D-14 1.82901120D-07
 ***** Axes restored to original set *****
 -------------------------------------------------------------------
 Center     Atomic                   Forces (Hartrees/Bohr)
 Number     Number              X              Y              Z
 -------------------------------------------------------------------
      1        6           0.009602802   -0.000000707    0.000000000
      2        6           0.004801747    0.008317007    0.000000000
      3        6          -0.004801748    0.008317007    0.000000000
      4        6          -0.009602802   -0.000000707    0.000000000
      5        6          -0.004803913   -0.008316142    0.000000000
      6        6           0.004803913   -0.008316142    0.000000000
      7        1          -0.009545268    0.000000197    0.000000000
      8        1          -0.004773100   -0.008266922    0.000000000
      9        1           0.004773100   -0.008266922    0.000000000
     10        1           0.009545268    0.000000197    0.000000000
     11        1           0.004772758    0.008266567    0.000000000
     12        1          -0.004772758    0.008266567    0.000000000
 -------------------------------------------------------------------
 Cartesian Forces:  Max     0.009602802 RMS     0.005527863
 Leave Link  716 at Mon Dec 22 20:06:55 2014, MaxMem=   33554432 cpu:       0.0
 (Enter /users/humeniuka/software/qc/gaussian-09.A02/g09/l103.exe)

 GradGradGradGradGradGradGradGradGradGradGradGradGradGradGradGradGradGrad
 Berny optimization.
 Using GEDIIS/GDIIS optimizer.
 Internal  Forces:  Max     0.009545914 RMS     0.003181905
 Search for a local minimum.
 Step number   2 out of a maximum of   64
 All quantities printed in internal units (Hartrees-Bohrs-Radians)
 RMS Force = .31819D-02 SwitMx=.10000D-02 MixMth= 1
 Mixed Optimization -- RFO/linear search
 Update second derivatives using D2CorX and points    1    2
 DE= -2.57D-02 DEPred=-2.63D-02 R= 9.77D-01
 SS=  1.41D+00  RLast= 3.00D-01 DXNew= 5.0454D-01 9.0000D-01
 Trust test= 9.77D-01 RLast= 3.00D-01 DXMaxT set to 5.05D-01
 Use linear search instead of GDIIS.
     Eigenvalues ---    0.01982   0.01982   0.01982   0.01982   0.01982
     Eigenvalues ---    0.01982   0.01982   0.01982   0.01982   0.16000
     Eigenvalues ---    0.16000   0.16000   0.16000   0.16000   0.16000
     Eigenvalues ---    0.22000   0.22000   0.22000   0.40351   0.40351
     Eigenvalues ---    0.42388   0.43953   0.43953   0.43953   0.43953
     Eigenvalues ---    0.43953   0.44307   0.44307   0.44307   0.45473
     Eigenvalues --- 1000.000001000.000001000.000001000.000001000.00000
     Eigenvalues --- 1000.000001000.000001000.000001000.000001000.00000
     Eigenvalues --- 1000.000001000.000001000.000001000.000001000.00000
     Eigenvalues --- 1000.000001000.000001000.000001000.000001000.00000
     Eigenvalues --- 1000.000001000.000001000.000001000.00000
 RFO step:  Lambda=-6.03624465D-05 EMin= 1.98181519D-02
 Quartic linear search produced a step of  0.20638.
 Iteration  1 RMS(Cart)=  0.00859516 RMS(Int)=  0.00000001
 Iteration  2 RMS(Cart)=  0.00000001 RMS(Int)=  0.00000000
 ClnCor:  largest displacement from symmetrization is 2.81D-12 for atom    12.
 Variable       Old X    -DE/DX   Delta X   Delta X   Delta X     New X
                                 (Linear)    (Quad)   (Total)
    R1        2.63789  -0.00006  -0.00475   0.00465  -0.00010   2.63780
    R2        2.63789  -0.00006  -0.00475   0.00465  -0.00009   2.63779
    R3        2.05241   0.00955   0.02483   0.00105   0.02588   2.07829
    R4        2.63789  -0.00006  -0.00475   0.00465  -0.00010   2.63779
    R5        2.05240   0.00955   0.02483   0.00106   0.02588   2.07829
    R6        2.63789  -0.00006  -0.00475   0.00465  -0.00010   2.63780
    R7        2.05240   0.00955   0.02483   0.00106   0.02588   2.07829
    R8        2.63789  -0.00006  -0.00475   0.00465  -0.00009   2.63779
    R9        2.05241   0.00955   0.02483   0.00105   0.02588   2.07829
   R10        2.63790  -0.00006  -0.00474   0.00464  -0.00010   2.63779
   R11        2.05241   0.00955   0.02483   0.00105   0.02588   2.07829
   R12        2.05241   0.00955   0.02483   0.00105   0.02588   2.07829
    A1        2.09440   0.00000   0.00000   0.00000   0.00000   2.09440
    A2        2.09439   0.00000   0.00000   0.00000   0.00000   2.09439
    A3        2.09440   0.00000   0.00000   0.00000   0.00000   2.09440
    A4        2.09440   0.00000   0.00000   0.00000   0.00000   2.09439
    A5        2.09440   0.00000   0.00000   0.00000   0.00000   2.09439
    A6        2.09439   0.00000   0.00000   0.00000   0.00000   2.09440
    A7        2.09440   0.00000   0.00000   0.00000   0.00000   2.09439
    A8        2.09439   0.00000   0.00000   0.00000   0.00000   2.09440
    A9        2.09440   0.00000   0.00000   0.00000   0.00000   2.09439
   A10        2.09440   0.00000   0.00000   0.00000   0.00000   2.09440
   A11        2.09439   0.00000   0.00000   0.00000   0.00000   2.09439
   A12        2.09440   0.00000   0.00000   0.00000   0.00000   2.09440
   A13        2.09439   0.00000   0.00000   0.00000   0.00000   2.09440
   A14        2.09440   0.00000   0.00000   0.00000   0.00000   2.09440
   A15        2.09439   0.00000   0.00000   0.00000   0.00000   2.09439
   A16        2.09439   0.00000   0.00000   0.00000   0.00000   2.09440
   A17        2.09440   0.00000   0.00000   0.00000   0.00000   2.09440
   A18        2.09439   0.00000   0.00000   0.00000   0.00000   2.09439
    D1        0.00000   0.00000   0.00000   0.00000   0.00000   0.00000
    D2        3.14159   0.00000   0.00000   0.00000   0.00000   3.14159
    D3        3.14159   0.00000   0.00000   0.00000   0.00000   3.14159
    D4        0.00000   0.00000   0.00000   0.00000   0.00000   0.00000
    D5        0.00000   0.00000   0.00000   0.00000   0.00000   0.00000
    D6        3.14159   0.00000   0.00000   0.00000   0.00000   3.14159
    D7        3.14159   0.00000   0.00000   0.00000   0.00000   3.14159
    D8        0.00000   0.00000   0.00000   0.00000   0.00000   0.00000
    D9        0.00000   0.00000   0.00000   0.00000   0.00000   0.00000
   D10        3.14159   0.00000   0.00000   0.00000   0.00000   3.14159
   D11        3.14159   0.00000   0.00000   0.00000   0.00000   3.14159
   D12        0.00000   0.00000   0.00000   0.00000   0.00000   0.00000
   D13        0.00000   0.00000   0.00000   0.00000   0.00000   0.00000
   D14        3.14159   0.00000   0.00000   0.00000   0.00000   3.14159
   D15        3.14159   0.00000   0.00000   0.00000   0.00000   3.14159
   D16        0.00000   0.00000   0.00000   0.00000   0.00000   0.00000
   D17        0.00000   0.00000   0.00000   0.00000   0.00000   0.00000
   D18        3.14159   0.00000   0.00000   0.00000   0.00000   3.14159
   D19        3.14159   0.00000   0.00000   0.00000   0.00000   3.14159
   D20        0.00000   0.00000   0.00000   0.00000   0.00000   0.00000
   D21        0.00000   0.00000   0.00000   0.00000   0.00000   0.00000
   D22        3.14159   0.00000   0.00000   0.00000   0.00000   3.14159
   D23        3.14159   0.00000   0.00000   0.00000   0.00000   3.14159
   D24        0.00000   0.00000   0.00000   0.00000   0.00000   0.00000
         Item               Value     Threshold  Converged?
 Maximum Force            0.009546     0.000450     NO 
 RMS     Force            0.003182     0.000300     NO 
 Maximum Displacement     0.025784     0.001800     NO 
 RMS     Displacement     0.008595     0.001200     NO 
 Predicted change in Energy=-6.181102D-04
 GradGradGradGradGradGradGradGradGradGradGradGradGradGradGradGradGradGrad

 Leave Link  103 at Mon Dec 22 20:06:56 2014, MaxMem=   33554432 cpu:       0.0
 (Enter /users/humeniuka/software/qc/gaussian-09.A02/g09/l202.exe)
                          Input orientation:                          
 ---------------------------------------------------------------------
 Center     Atomic      Atomic             Coordinates (Angstroms)
 Number     Number       Type             X           Y           Z
 ---------------------------------------------------------------------
      1          6           0       -0.700860    1.203777    0.000000
      2          6           0       -0.002930   -0.005075    0.000000
      3          6           0        1.392930   -0.005075    0.000000
      4          6           0        2.090860    1.203777    0.000000
      5          6           0        1.392930    2.412627    0.000000
      6          6           0       -0.002930    2.412627    0.000000
      7          1           0       -1.800643    1.203776    0.000000
      8          1           0       -0.552822   -0.957513    0.000000
      9          1           0        1.942822   -0.957513    0.000000
     10          1           0        3.190643    1.203776    0.000000
     11          1           0        1.942820    3.365067    0.000000
     12          1           0       -0.552820    3.365067    0.000000
 ---------------------------------------------------------------------
                    Distance matrix (angstroms):
                    1          2          3          4          5
     1  C    0.000000
     2  C    1.395861   0.000000
     3  C    2.417702   1.395860   0.000000
     4  C    2.791721   2.417702   1.395861   0.000000
     5  C    2.417701   2.791722   2.417702   1.395860   0.000000
     6  C    1.395860   2.417702   2.791722   2.417701   1.395860
     7  H    1.099782   2.166354   3.414708   3.891503   3.414707
     8  H    2.166355   1.099782   2.166354   3.414708   3.891504
     9  H    3.414708   2.166354   1.099782   2.166355   3.414708
    10  H    3.891503   3.414708   2.166354   1.099782   2.166354
    11  H    3.414706   3.891503   3.414709   2.166354   1.099782
    12  H    2.166354   3.414709   3.891503   3.414706   2.166353
                    6          7          8          9         10
     6  C    0.000000
     7  H    2.166354   0.000000
     8  H    3.414708   2.495642   0.000000
     9  H    3.891504   4.322580   2.495644   0.000000
    10  H    3.414707   4.991285   4.322580   2.495642   0.000000
    11  H    2.166353   4.322579   4.991285   4.322581   2.495644
    12  H    1.099782   2.495644   4.322581   4.991285   4.322579
                   11         12
    11  H    0.000000
    12  H    2.495639   0.000000
 Stoichiometry    C6H6
 Framework group  C2V[SGV(C6H6)]
 Deg. of freedom    11
 Full point group                 C2V     NOp   4
 Largest Abelian subgroup         C2V     NOp   4
 Largest concise Abelian subgroup C2      NOp   2
                         Standard orientation:                         
 ---------------------------------------------------------------------
 Center     Atomic      Atomic             Coordinates (Angstroms)
 Number     Number       Type             X           Y           Z
 ---------------------------------------------------------------------
      1          6           0        0.000000    1.395860    0.000000
      2          6           0        0.000000    0.697930    1.208851
      3          6           0        0.000000   -0.697930    1.208851
      4          6           0        0.000000   -1.395860    0.000000
      5          6           0        0.000000   -0.697930   -1.208851
      6          6           0        0.000000    0.697930   -1.208851
      7          1           0        0.000000    2.495643    0.000000
      8          1           0        0.000000    1.247822    2.161290
      9          1           0        0.000000   -1.247822    2.161290
     10          1           0        0.000000   -2.495643    0.000000
     11          1           0        0.000000   -1.247820   -2.161291
     12          1           0        0.000000    1.247820   -2.161291
 ---------------------------------------------------------------------
 Rotational constants (GHZ):      5.6800601      5.6800555      2.8400289
 Leave Link  202 at Mon Dec 22 20:06:56 2014, MaxMem=   33554432 cpu:       0.0
 (Enter /users/humeniuka/software/qc/gaussian-09.A02/g09/l301.exe)
 Standard basis: VSTO-6G (5D, 7F)
 Ernie: Thresh=  0.10000D-02 Tol=  0.10000D-05 Strict=F.
  NNHCO=     0 NNPyr=     0 NCTC=     0               EPep=         0.000000000
    EC=        85.799630997  ECS=         2.279105451   EG=         0.201648684
   EHC=         0.000000000  EAt=       -29.152259586  AtH=         2.132162249
 EPDDG=         0.000000000  ECC=        88.280385132 EAtT=        31.284421835
 There are    12 symmetry adapted basis functions of A1  symmetry.
 There are     3 symmetry adapted basis functions of A2  symmetry.
 There are     3 symmetry adapted basis functions of B1  symmetry.
 There are    12 symmetry adapted basis functions of B2  symmetry.
 Integral buffers will be    131072 words long.
 Regular integral format.
 Two-electron integral symmetry is turned off.
    30 basis functions,   180 primitive gaussians,    30 cartesian basis functions
    15 alpha electrons       15 beta electrons
       nuclear repulsion energy       119.5648069667 Hartrees.
 IExCor=    0 DFT=F Ex=HF Corr=None ExCW=0 ScaHFX=  1.000000
 ScaDFX=  1.000000  1.000000  1.000000  1.000000 ScalE2=  1.000000  1.000000
 IRadAn=      0 IRanWt=     -1 IRanGd=            0 ICorTp=0
 Leave Link  301 at Mon Dec 22 20:06:56 2014, MaxMem=   33554432 cpu:       0.0
 (Enter /users/humeniuka/software/qc/gaussian-09.A02/g09/l302.exe)
 Do NDO integrals.
 NPDir=0 NMtPBC=     1 NCelOv=     1 NCel=       1 NClECP=     1 NCelD=      1
         NCelK=      1 NCelE2=     1 NClLst=     1 CellRange=     0.0.
 One-electron integrals computed using PRISM.
 NBasis=    30 RedAO= F  NBF=    12     3     3    12
 NBsUse=    30 1.00D-04 NBFU=    12     3     3    12
 Leave Link  302 at Mon Dec 22 20:06:56 2014, MaxMem=   33554432 cpu:       0.0
 (Enter /users/humeniuka/software/qc/gaussian-09.A02/g09/l303.exe)
 DipDrv:  MaxL=1.
 Leave Link  303 at Mon Dec 22 20:06:56 2014, MaxMem=   33554432 cpu:       0.0
 (Enter /users/humeniuka/software/qc/gaussian-09.A02/g09/l401.exe)
 Initial guess read from the read-write file.
 B after Tr=     0.000000    0.000000    0.000000
         Rot=    1.000000    0.000000    0.000000    0.000000 Ang=   0.00 deg.
 Guess basis will be translated and rotated to current coordinates.
 Initial guess orbital symmetries:
       Occupied  (A1) (B2) (A1) (B2) (A1) (A1) (B2) (A1) (B2) (A1)
                 (B1) (B2) (A1) (A2) (B1)
       Virtual   (A2) (B1) (A2) (B2) (A1) (B2) (A1) (B2) (A1) (B2)
                 (A1) (B2) (A1) (B2) (B2)
 The electronic state of the initial guess is 1-A1.
 Leave Link  401 at Mon Dec 22 20:06:56 2014, MaxMem=   33554432 cpu:       0.0
 (Enter /users/humeniuka/software/qc/gaussian-09.A02/g09/l502.exe)
 Closed shell SCF:
 Requested convergence on RMS density matrix=1.00D-08 within 128 cycles.
 Requested convergence on MAX density matrix=1.00D-06.
 Requested convergence on             energy=1.00D-06.
 No special actions if energy rises.
 Using DIIS extrapolation, IDIIS=  1040.
 Overlap will be assumed to be unity.
 Two-electron integral symmetry not used.
 Keep J ints in memory in canonical form, NReq=882346.
 IEnd=       80121 IEndB=       80121 NGot=    33554432 MDV=    33489643
 LenX=    33489643 LenY=    33488302
 Symmetry not used in FoFDir.
 MinBra= 0 MaxBra= 1 Meth= 8.
 IRaf=       0 NMat=   1 IRICut=       1 DoRegI=T DoRafI=F ISym2E= 0 JSym2E=0.

 Cycle   1  Pass 1  IDiag  1:
 E=  4.47344546893322    
 DIIS: error= 7.15D-02 at cycle   1 NSaved=   1.
 NSaved= 1 IEnMin= 1 EnMin=  4.47344546893322     IErMin= 1 ErrMin= 7.15D-02
 ErrMax= 7.15D-02 EMaxC= 1.00D-01 BMatC= 3.24D-01 BMatP= 3.24D-01
 IDIUse=3 WtCom= 2.85D-01 WtEn= 7.15D-01
 Coeff-Com:  0.100D+01
 Coeff-En:   0.100D+01
 Coeff:      0.100D+01
 GapD=    2.000 DampG=2.000 DampE=0.500 DampFc=1.0000 IDamp=-1.
 RMSDP=7.85D-02 MaxDP=4.96D-01              OVMax= 0.00D+00

 Cycle   2  Pass 1  IDiag  1:
 E= 0.618364878640577     Delta-E=       -3.855080590293 Rises=F Damp=F
 DIIS: error= 5.08D-02 at cycle   2 NSaved=   2.
 NSaved= 2 IEnMin= 2 EnMin= 0.618364878640577     IErMin= 2 ErrMin= 5.08D-02
 ErrMax= 5.08D-02 EMaxC= 1.00D-01 BMatC= 1.23D-01 BMatP= 3.24D-01
 IDIUse=3 WtCom= 4.92D-01 WtEn= 5.08D-01
 Coeff-Com: -0.112D+00 0.111D+01
 Coeff-En:   0.000D+00 0.100D+01
 Coeff:     -0.549D-01 0.105D+01
 RMSDP=2.53D-02 MaxDP=1.35D-01 DE=-3.86D+00 OVMax= 0.00D+00

 Cycle   3  Pass 1  IDiag  1:
 E= 0.103098052475701     Delta-E=       -0.515266826165 Rises=F Damp=F
 DIIS: error= 1.77D-02 at cycle   3 NSaved=   3.
 NSaved= 3 IEnMin= 3 EnMin= 0.103098052475701     IErMin= 3 ErrMin= 1.77D-02
 ErrMax= 1.77D-02 EMaxC= 1.00D-01 BMatC= 1.52D-02 BMatP= 1.23D-01
 IDIUse=3 WtCom= 8.23D-01 WtEn= 1.77D-01
 Coeff-Com:  0.609D-01-0.539D+00 0.148D+01
 Coeff-En:   0.000D+00 0.000D+00 0.100D+01
 Coeff:      0.501D-01-0.444D+00 0.139D+01
 RMSDP=1.10D-02 MaxDP=4.95D-02 DE=-5.15D-01 OVMax= 0.00D+00

 Cycle   4  Pass 1  IDiag  3:
 E= 0.375055334786509E-01 Delta-E=       -0.065592518997 Rises=F Damp=F
 DIIS: error= 2.67D-03 at cycle   4 NSaved=   4.
 NSaved= 4 IEnMin= 4 EnMin= 0.375055334786509E-01 IErMin= 4 ErrMin= 2.67D-03
 ErrMax= 2.67D-03 EMaxC= 1.00D-01 BMatC= 5.02D-04 BMatP= 1.52D-02
 IDIUse=3 WtCom= 9.73D-01 WtEn= 2.67D-02
 Coeff-Com: -0.164D-01 0.210D+00-0.726D+00 0.153D+01
 Coeff-En:   0.000D+00 0.000D+00 0.000D+00 0.100D+01
 Coeff:     -0.159D-01 0.204D+00-0.706D+00 0.152D+01
 Gap=     0.375 Goal=   None    Shift=    0.000
 Fock symm off for IB=2 I1=    1 I=   13 J=    4 Cut=1.00D-07 Err=1.62D-03
 Fock matrix is not symmetric: symmetry in diagonalization turned off.
 RMSDP=2.39D-03 MaxDP=1.14D-02 DE=-6.56D-02 OVMax= 0.00D+00

 Cycle   5  Pass 1  IDiag  3:
 E= 0.350111792604508E-01 Delta-E=       -0.002494354218 Rises=F Damp=F
 DIIS: error= 3.32D-04 at cycle   5 NSaved=   5.
 NSaved= 5 IEnMin= 5 EnMin= 0.350111792604508E-01 IErMin= 5 ErrMin= 3.32D-04
 ErrMax= 3.32D-04 EMaxC= 1.00D-01 BMatC= 1.01D-05 BMatP= 5.02D-04
 IDIUse=3 WtCom= 9.97D-01 WtEn= 3.32D-03
 Coeff-Com:  0.229D-02-0.327D-01 0.117D+00-0.364D+00 0.128D+01
 Coeff-En:   0.000D+00 0.000D+00 0.000D+00 0.000D+00 0.100D+01
 Coeff:      0.228D-02-0.325D-01 0.117D+00-0.363D+00 0.128D+01
 Gap=     0.375 Goal=   None    Shift=    0.000
 RMSDP=3.51D-04 MaxDP=2.39D-03 DE=-2.49D-03 OVMax= 0.00D+00

 Cycle   6  Pass 1  IDiag  3:
 E= 0.349602148664871E-01 Delta-E=       -0.000050964394 Rises=F Damp=F
 DIIS: error= 7.08D-05 at cycle   6 NSaved=   6.
 NSaved= 6 IEnMin= 6 EnMin= 0.349602148664871E-01 IErMin= 6 ErrMin= 7.08D-05
 ErrMax= 7.08D-05 EMaxC= 1.00D-01 BMatC= 3.46D-07 BMatP= 1.01D-05
 IDIUse=1 WtCom= 1.00D+00 WtEn= 0.00D+00
 Coeff-Com:  0.147D-03 0.158D-02-0.603D-02 0.455D-01-0.355D+00 0.131D+01
 Coeff:      0.147D-03 0.158D-02-0.603D-02 0.455D-01-0.355D+00 0.131D+01
 Gap=     0.375 Goal=   None    Shift=    0.000
 RMSDP=6.02D-05 MaxDP=4.76D-04 DE=-5.10D-05 OVMax= 0.00D+00

 Cycle   7  Pass 1  IDiag  3:
 E= 0.349585781834776E-01 Delta-E=       -0.000001636683 Rises=F Damp=F
 DIIS: error= 1.20D-05 at cycle   7 NSaved=   7.
 NSaved= 7 IEnMin= 7 EnMin= 0.349585781834776E-01 IErMin= 7 ErrMin= 1.20D-05
 ErrMax= 1.20D-05 EMaxC= 1.00D-01 BMatC= 1.18D-08 BMatP= 3.46D-07
 IDIUse=1 WtCom= 1.00D+00 WtEn= 0.00D+00
 Coeff-Com:  0.998D-06-0.705D-03 0.203D-02-0.155D-01 0.124D+00-0.538D+00
 Coeff-Com:  0.143D+01
 Coeff:      0.998D-06-0.705D-03 0.203D-02-0.155D-01 0.124D+00-0.538D+00
 Coeff:      0.143D+01
 Gap=     0.375 Goal=   None    Shift=    0.000
 RMSDP=1.32D-05 MaxDP=1.06D-04 DE=-1.64D-06 OVMax= 0.00D+00

 Cycle   8  Pass 1  IDiag  3:
 E= 0.349585114093145E-01 Delta-E=       -0.000000066774 Rises=F Damp=F
 DIIS: error= 2.14D-06 at cycle   8 NSaved=   8.
 NSaved= 8 IEnMin= 8 EnMin= 0.349585114093145E-01 IErMin= 8 ErrMin= 2.14D-06
 ErrMax= 2.14D-06 EMaxC= 1.00D-01 BMatC= 4.95D-10 BMatP= 1.18D-08
 IDIUse=1 WtCom= 1.00D+00 WtEn= 0.00D+00
 Coeff-Com: -0.410D-06 0.117D-03-0.156D-03 0.356D-02-0.336D-01 0.158D+00
 Coeff-Com: -0.564D+00 0.144D+01
 Coeff:     -0.410D-06 0.117D-03-0.156D-03 0.356D-02-0.336D-01 0.158D+00
 Coeff:     -0.564D+00 0.144D+01
 Gap=     0.375 Goal=   None    Shift=    0.000
 RMSDP=2.82D-06 MaxDP=1.76D-05 DE=-6.68D-08 OVMax= 0.00D+00

 Cycle   9  Pass 1  IDiag  3:
 E= 0.349585086859037E-01 Delta-E=       -0.000000002723 Rises=F Damp=F
 DIIS: error= 3.21D-07 at cycle   9 NSaved=   9.
 NSaved= 9 IEnMin= 9 EnMin= 0.349585086859037E-01 IErMin= 9 ErrMin= 3.21D-07
 ErrMax= 3.21D-07 EMaxC= 1.00D-01 BMatC= 1.29D-11 BMatP= 4.95D-10
 IDIUse=1 WtCom= 1.00D+00 WtEn= 0.00D+00
 Coeff-Com: -0.302D-06 0.736D-05-0.112D-03-0.477D-03 0.676D-02-0.347D-01
 Coeff-Com:  0.146D+00-0.477D+00 0.136D+01
 Coeff:     -0.302D-06 0.736D-05-0.112D-03-0.477D-03 0.676D-02-0.347D-01
 Coeff:      0.146D+00-0.477D+00 0.136D+01
 Gap=     0.375 Goal=   None    Shift=    0.000
 RMSDP=3.69D-07 MaxDP=1.53D-06 DE=-2.72D-09 OVMax= 0.00D+00

 Cycle  10  Pass 1  IDiag  3:
 E= 0.349585086252375E-01 Delta-E=       -0.000000000061 Rises=F Damp=F
 DIIS: error= 5.03D-08 at cycle  10 NSaved=  10.
 NSaved=10 IEnMin=10 EnMin= 0.349585086252375E-01 IErMin=10 ErrMin= 5.03D-08
 ErrMax= 5.03D-08 EMaxC= 1.00D-01 BMatC= 3.42D-13 BMatP= 1.29D-11
 IDIUse=1 WtCom= 1.00D+00 WtEn= 0.00D+00
 Coeff-Com:  0.680D-07-0.487D-05 0.362D-04 0.598D-04-0.119D-02 0.621D-02
 Coeff-Com: -0.290D-01 0.105D+00-0.421D+00 0.134D+01
 Coeff:      0.680D-07-0.487D-05 0.362D-04 0.598D-04-0.119D-02 0.621D-02
 Coeff:     -0.290D-01 0.105D+00-0.421D+00 0.134D+01
 Gap=     0.375 Goal=   None    Shift=    0.000
 RMSDP=6.17D-08 MaxDP=2.38D-07 DE=-6.07D-11 OVMax= 0.00D+00

 Cycle  11  Pass 1  IDiag  3:
 E= 0.349585086236317E-01 Delta-E=       -0.000000000002 Rises=F Damp=F
 DIIS: error= 1.41D-08 at cycle  11 NSaved=  11.
 NSaved=11 IEnMin=11 EnMin= 0.349585086236317E-01 IErMin=11 ErrMin= 1.41D-08
 ErrMax= 1.41D-08 EMaxC= 1.00D-01 BMatC= 1.11D-14 BMatP= 3.42D-13
 IDIUse=1 WtCom= 1.00D+00 WtEn= 0.00D+00
 Coeff-Com:  0.187D-08 0.740D-06-0.592D-05-0.166D-04 0.248D-03-0.116D-02
 Coeff-Com:  0.540D-02-0.202D-01 0.952D-01-0.418D+00 0.134D+01
 Coeff:      0.187D-08 0.740D-06-0.592D-05-0.166D-04 0.248D-03-0.116D-02
 Coeff:      0.540D-02-0.202D-01 0.952D-01-0.418D+00 0.134D+01
 Gap=     0.375 Goal=   None    Shift=    0.000
 RMSDP=1.31D-08 MaxDP=9.20D-08 DE=-1.61D-12 OVMax= 0.00D+00

 Cycle  12  Pass 1  IDiag  3:
 E= 0.349585086235749E-01 Delta-E=        0.000000000000 Rises=F Damp=F
 DIIS: error= 6.92D-09 at cycle  12 NSaved=  12.
 NSaved=12 IEnMin=12 EnMin= 0.349585086235749E-01 IErMin=12 ErrMin= 6.92D-09
 ErrMax= 6.92D-09 EMaxC= 1.00D-01 BMatC= 1.14D-15 BMatP= 1.11D-14
 IDIUse=1 WtCom= 1.00D+00 WtEn= 0.00D+00
 Coeff-Com: -0.628D-09-0.357D-07 0.550D-06 0.547D-05-0.547D-04 0.207D-03
 Coeff-Com: -0.927D-03 0.366D-02-0.225D-01 0.133D+00-0.668D+00 0.155D+01
 Coeff:     -0.628D-09-0.357D-07 0.550D-06 0.547D-05-0.547D-04 0.207D-03
 Coeff:     -0.927D-03 0.366D-02-0.225D-01 0.133D+00-0.668D+00 0.155D+01
 Gap=     0.375 Goal=   None    Shift=    0.000
 RMSDP=6.70D-09 MaxDP=5.93D-08 DE=-5.68D-14 OVMax= 0.00D+00

 Cycle  13  Pass 2  IDiag  1:
 RMSDP=6.70D-09 MaxDP=5.93D-08 DE=-5.68D-14 OVMax= 0.00D+00

 SCF Done:  E(RAM1) =  0.349585086236E-01 A.U. after   13 cycles
             Convg  =    0.6700D-08             -V/T =  1.0007
 KE=-4.955309023009D+01 PE=-1.687745910789D+02 EE= 9.879783285086D+01
 Leave Link  502 at Mon Dec 22 20:06:56 2014, MaxMem=   33554432 cpu:       0.0
 (Enter /users/humeniuka/software/qc/gaussian-09.A02/g09/l701.exe)
[...]
               26            27            28            29            30 
     26  0.286057D+00
     27  0.000000D+00  0.240839D-01
     28 -0.329624D-03  0.000000D+00  0.362926D+00
     29 -0.306290D-03  0.000000D+00  0.000000D+00  0.554511D-01
     30  0.000000D+00 -0.149297D-02  0.000000D+00  0.000000D+00  0.240839D-01
     31  0.319781D-03  0.000000D+00  0.190713D-03  0.531238D-03  0.000000D+00
     32 -0.452060D-03  0.000000D+00  0.329623D-03 -0.306286D-03  0.000000D+00
     33  0.000000D+00 -0.326335D-03  0.000000D+00  0.000000D+00 -0.149297D-02
     34  0.421249D-04  0.000000D+00 -0.272913D-03  0.630136D-03  0.000000D+00
     35 -0.775248D-04  0.000000D+00 -0.942870D-05  0.854562D-04  0.000000D+00
     36  0.000000D+00 -0.963669D-03  0.000000D+00  0.000000D+00 -0.326335D-03
               31            32            33            34            35 
     31  0.132320D+00
     32  0.133140D+00  0.286057D+00
     33  0.000000D+00  0.000000D+00  0.240839D-01
     34 -0.554626D-03  0.100745D-03  0.000000D+00  0.132320D+00
     35 -0.100745D-03  0.439265D-03  0.000000D+00 -0.133140D+00  0.286057D+00
     36  0.000000D+00  0.000000D+00 -0.149297D-02  0.000000D+00  0.000000D+00
               36 
     36  0.240839D-01
 Leave Link  716 at Mon Dec 22 20:07:02 2014, MaxMem=   33554432 cpu:       0.0
 (Enter /users/humeniuka/software/qc/gaussian-09.A02/g09/l103.exe)

 GradGradGradGradGradGradGradGradGradGradGradGradGradGradGradGradGradGrad
 Berny optimization.
 Internal  Forces:  Max     0.000002224 RMS     0.000000897
 Search for a local minimum.
 Step number   1 out of a maximum of    2
 All quantities printed in internal units (Hartrees-Bohrs-Radians)
 Second derivative matrix not updated -- analytic derivatives used.
     Eigenvalues ---    0.01286   0.01286   0.01385   0.02578   0.02578
     Eigenvalues ---    0.02867   0.03155   0.03188   0.03188   0.09908
     Eigenvalues ---    0.11435   0.11435   0.11455   0.11743   0.11743
     Eigenvalues ---    0.19038   0.19038   0.19376   0.32649   0.35247
     Eigenvalues ---    0.35247   0.35882   0.36820   0.36820   0.36983
     Eigenvalues ---    0.58238   0.58238   0.62001   0.62001   0.80764
     Eigenvalues --- 1000.000001000.000001000.000001000.000001000.00000
     Eigenvalues --- 1000.000001000.000001000.000001000.000001000.00000
     Eigenvalues --- 1000.000001000.000001000.000001000.000001000.00000
     Eigenvalues --- 1000.000001000.000001000.000001000.000001000.00000
     Eigenvalues --- 1000.000001000.000001000.000001000.00000
 Angle between quadratic step and forces=  23.24 degrees.
 Linear search not attempted -- first point.
 Iteration  1 RMS(Cart)=  0.00000238 RMS(Int)=  0.00000000
 Iteration  2 RMS(Cart)=  0.00000000 RMS(Int)=  0.00000000
 ClnCor:  largest displacement from symmetrization is 1.14D-13 for atom     7.
 Variable       Old X    -DE/DX   Delta X   Delta X   Delta X     New X
                                 (Linear)    (Quad)   (Total)
    R1        2.63626   0.00000   0.00000   0.00000   0.00000   2.63626
    R2        2.63626   0.00000   0.00000   0.00000   0.00000   2.63626
    R3        2.07808   0.00000   0.00000   0.00000   0.00000   2.07808
    R4        2.63626   0.00000   0.00000   0.00000   0.00000   2.63626
    R5        2.07808   0.00000   0.00000   0.00000   0.00000   2.07808
    R6        2.63626   0.00000   0.00000   0.00000   0.00000   2.63626
    R7        2.07808   0.00000   0.00000   0.00000   0.00000   2.07808
    R8        2.63626   0.00000   0.00000   0.00000   0.00000   2.63626
    R9        2.07808   0.00000   0.00000   0.00000   0.00000   2.07808
   R10        2.63626   0.00000   0.00000   0.00000   0.00000   2.63626
   R11        2.07808   0.00000   0.00000   0.00000   0.00000   2.07808
   R12        2.07808   0.00000   0.00000   0.00000   0.00000   2.07808
    A1        2.09440   0.00000   0.00000   0.00000   0.00000   2.09440
    A2        2.09439   0.00000   0.00000   0.00000   0.00000   2.09440
    A3        2.09440   0.00000   0.00000   0.00000   0.00000   2.09440
    A4        2.09440   0.00000   0.00000   0.00000   0.00000   2.09440
    A5        2.09439   0.00000   0.00000   0.00000   0.00000   2.09440
    A6        2.09440   0.00000   0.00000   0.00000   0.00000   2.09440
    A7        2.09440   0.00000   0.00000   0.00000   0.00000   2.09440
    A8        2.09440   0.00000   0.00000   0.00000   0.00000   2.09440
    A9        2.09439   0.00000   0.00000   0.00000   0.00000   2.09440
   A10        2.09440   0.00000   0.00000   0.00000   0.00000   2.09440
   A11        2.09439   0.00000   0.00000   0.00000   0.00000   2.09440
   A12        2.09440   0.00000   0.00000   0.00000   0.00000   2.09440
   A13        2.09440   0.00000   0.00000   0.00000   0.00000   2.09440
   A14        2.09440   0.00000   0.00000   0.00000   0.00000   2.09440
   A15        2.09439   0.00000   0.00000   0.00000   0.00000   2.09440
   A16        2.09440   0.00000   0.00000   0.00000   0.00000   2.09440
   A17        2.09440   0.00000   0.00000   0.00000   0.00000   2.09440
   A18        2.09439   0.00000   0.00000   0.00000   0.00000   2.09440
    D1        0.00000   0.00000   0.00000   0.00000   0.00000   0.00000
    D2        3.14159   0.00000   0.00000   0.00000   0.00000   3.14159
    D3        3.14159   0.00000   0.00000   0.00000   0.00000   3.14159
    D4        0.00000   0.00000   0.00000   0.00000   0.00000   0.00000
    D5        0.00000   0.00000   0.00000   0.00000   0.00000   0.00000
    D6        3.14159   0.00000   0.00000   0.00000   0.00000   3.14159
    D7        3.14159   0.00000   0.00000   0.00000   0.00000   3.14159
    D8        0.00000   0.00000   0.00000   0.00000   0.00000   0.00000
    D9        0.00000   0.00000   0.00000   0.00000   0.00000   0.00000
   D10        3.14159   0.00000   0.00000   0.00000   0.00000   3.14159
   D11        3.14159   0.00000   0.00000   0.00000   0.00000   3.14159
   D12        0.00000   0.00000   0.00000   0.00000   0.00000   0.00000
   D13        0.00000   0.00000   0.00000   0.00000   0.00000   0.00000
   D14        3.14159   0.00000   0.00000   0.00000   0.00000   3.14159
   D15        3.14159   0.00000   0.00000   0.00000   0.00000   3.14159
   D16        0.00000   0.00000   0.00000   0.00000   0.00000   0.00000
   D17        0.00000   0.00000   0.00000   0.00000   0.00000   0.00000
   D18        3.14159   0.00000   0.00000   0.00000   0.00000   3.14159
   D19        3.14159   0.00000   0.00000   0.00000   0.00000   3.14159
   D20        0.00000   0.00000   0.00000   0.00000   0.00000   0.00000
   D21        0.00000   0.00000   0.00000   0.00000   0.00000   0.00000
   D22        3.14159   0.00000   0.00000   0.00000   0.00000   3.14159
   D23        3.14159   0.00000   0.00000   0.00000   0.00000   3.14159
   D24        0.00000   0.00000   0.00000   0.00000   0.00000   0.00000
         Item               Value     Threshold  Converged?
 Maximum Force            0.000002     0.000450     YES
 RMS     Force            0.000001     0.000300     YES
 Maximum Displacement     0.000007     0.001800     YES
 RMS     Displacement     0.000002     0.001200     YES
 Predicted change in Energy=-3.748576D-11
 Optimization completed.
    -- Stationary point found.
                           ----------------------------
                           !   Optimized Parameters   !
                           ! (Angstroms and Degrees)  !
 --------------------------                            --------------------------
 ! Name  Definition              Value          Derivative Info.                !
 --------------------------------------------------------------------------------
 ! R1    R(1,2)                  1.3951         -DE/DX =    0.0                 !
 ! R2    R(1,6)                  1.3951         -DE/DX =    0.0                 !
 ! R3    R(1,7)                  1.0997         -DE/DX =    0.0                 !
 ! R4    R(2,3)                  1.3951         -DE/DX =    0.0                 !
 ! R5    R(2,8)                  1.0997         -DE/DX =    0.0                 !
 ! R6    R(3,4)                  1.3951         -DE/DX =    0.0                 !
 ! R7    R(3,9)                  1.0997         -DE/DX =    0.0                 !
 ! R8    R(4,5)                  1.3951         -DE/DX =    0.0                 !
 ! R9    R(4,10)                 1.0997         -DE/DX =    0.0                 !
 ! R10   R(5,6)                  1.3951         -DE/DX =    0.0                 !
 ! R11   R(5,11)                 1.0997         -DE/DX =    0.0                 !
 ! R12   R(6,12)                 1.0997         -DE/DX =    0.0                 !
 ! A1    A(2,1,6)              120.0            -DE/DX =    0.0                 !
 ! A2    A(2,1,7)              120.0            -DE/DX =    0.0                 !
 ! A3    A(6,1,7)              120.0            -DE/DX =    0.0                 !
 ! A4    A(1,2,3)              120.0            -DE/DX =    0.0                 !
 ! A5    A(1,2,8)              120.0            -DE/DX =    0.0                 !
 ! A6    A(3,2,8)              120.0            -DE/DX =    0.0                 !
 ! A7    A(2,3,4)              120.0            -DE/DX =    0.0                 !
 ! A8    A(2,3,9)              120.0            -DE/DX =    0.0                 !
 ! A9    A(4,3,9)              120.0            -DE/DX =    0.0                 !
 ! A10   A(3,4,5)              120.0            -DE/DX =    0.0                 !
 ! A11   A(3,4,10)             120.0            -DE/DX =    0.0                 !
 ! A12   A(5,4,10)             120.0            -DE/DX =    0.0                 !
 ! A13   A(4,5,6)              120.0            -DE/DX =    0.0                 !
 ! A14   A(4,5,11)             120.0            -DE/DX =    0.0                 !
 ! A15   A(6,5,11)             120.0            -DE/DX =    0.0                 !
 ! A16   A(1,6,5)              120.0            -DE/DX =    0.0                 !
 ! A17   A(1,6,12)             120.0            -DE/DX =    0.0                 !
 ! A18   A(5,6,12)             120.0            -DE/DX =    0.0                 !
 ! D1    D(6,1,2,3)              0.0            -DE/DX =    0.0                 !
 ! D2    D(6,1,2,8)            180.0            -DE/DX =    0.0                 !
 ! D3    D(7,1,2,3)            180.0            -DE/DX =    0.0                 !
 ! D4    D(7,1,2,8)              0.0            -DE/DX =    0.0                 !
 ! D5    D(2,1,6,5)              0.0            -DE/DX =    0.0                 !
 ! D6    D(2,1,6,12)           180.0            -DE/DX =    0.0                 !
 ! D7    D(7,1,6,5)            180.0            -DE/DX =    0.0                 !
 ! D8    D(7,1,6,12)             0.0            -DE/DX =    0.0                 !
 ! D9    D(1,2,3,4)              0.0            -DE/DX =    0.0                 !
 ! D10   D(1,2,3,9)            180.0            -DE/DX =    0.0                 !
 ! D11   D(8,2,3,4)            180.0            -DE/DX =    0.0                 !
 ! D12   D(8,2,3,9)              0.0            -DE/DX =    0.0                 !
 ! D13   D(2,3,4,5)              0.0            -DE/DX =    0.0                 !
 ! D14   D(2,3,4,10)           180.0            -DE/DX =    0.0                 !
 ! D15   D(9,3,4,5)            180.0            -DE/DX =    0.0                 !
 ! D16   D(9,3,4,10)             0.0            -DE/DX =    0.0                 !
 ! D17   D(3,4,5,6)              0.0            -DE/DX =    0.0                 !
 ! D18   D(3,4,5,11)           180.0            -DE/DX =    0.0                 !
 ! D19   D(10,4,5,6)           180.0            -DE/DX =    0.0                 !
 ! D20   D(10,4,5,11)            0.0            -DE/DX =    0.0                 !
 ! D21   D(4,5,6,1)              0.0            -DE/DX =    0.0                 !
 ! D22   D(4,5,6,12)           180.0            -DE/DX =    0.0                 !
 ! D23   D(11,5,6,1)           180.0            -DE/DX =    0.0                 !
 ! D24   D(11,5,6,12)            0.0            -DE/DX =    0.0                 !
 --------------------------------------------------------------------------------
 GradGradGradGradGradGradGradGradGradGradGradGradGradGradGradGradGradGrad

 Leave Link  103 at Mon Dec 22 20:07:02 2014, MaxMem=   33554432 cpu:       0.0
 (Enter /users/humeniuka/software/qc/gaussian-09.A02/g09/l9999.exe)
 1\1\GINC-FUX11\Freq\RAM1\ZDO\C6H6\HUMENIUKA\22-Dec-2014\0\\#P Geom=All
 Check Guess=TCheck SCRF=Check GenChk RAM1/ZDO Freq\\benzene\\0,1\C,-0.
 7000509754,1.2037767709,0.\C,-0.0025253911,-0.0043729199,0.\C,1.392525
 3922,-0.0043729193,0.\C,2.0900509754,1.2037767722,0.\C,1.392525614,2.4
 119261937,0.\C,-0.0025256151,2.411926193,0.\H,-1.7997237297,1.20377632
 58,0.\H,-0.5523620139,-0.9567172816,0.\H,1.9423620159,-0.9567172805,0.
 \H,3.1897237297,1.2037763281,0.\H,1.9423616467,3.3642709111,0.\H,-0.55
 23616487,3.36427091,0.\\Version=EM64L-G09RevA.02\State=1-A'\HF=0.03495
 27\RMSD=1.060e-09\RMSF=7.234e-07\ZeroPoint=0.1023591\Thermal=0.1067752
 \Dipole=0.,0.,0.\DipoleDeriv=-0.0676266,0.,0.,-0.0000002,-0.1509174,0.
 ,0.,0.,-0.1424297,-0.1300975,0.0360687,0.,0.0360689,-0.0884487,0.,0.,0
 .,-0.1424297,-0.1300975,-0.0360687,0.,-0.0360689,-0.0884487,0.,0.,0.,-
 0.1424297,-0.0676266,0.,0.,0.0000002,-0.1509174,0.,0.,0.,-0.1424297,-0
 .1300973,0.036069,0.,0.0360689,-0.0884489,0.,0.,0.,-0.1424297,-0.13009
 73,-0.036069,0.,-0.0360689,-0.0884489,0.,0.,0.,-0.1424297,0.1758596,0.
 ,0.,0.,0.0426815,0.,0.,0.,0.142429,0.0759791,0.0576658,0.,0.0576658,0.
 1425657,0.,0.,0.,0.142429,0.0759791,-0.0576658,0.,-0.0576658,0.1425657
 ,0.,0.,0.,0.142429,0.1758596,0.,0.,0.,0.0426815,0.,0.,0.,0.142429,0.07
 5979,0.0576658,0.,0.0576657,0.1425658,0.,0.,0.,0.142429,0.075979,-0.05
 76658,0.,-0.0576657,0.1425658,0.,0.,0.,0.142429\Polar=68.6064384,0.,68
 .6064378,0.,0.,9.0313444\HyperPolar=0.,-0.0000608,0.,0.0000583,0.,0.,0
 .,0.,-0.0000007,0.\PG=CS [SG(C6H6)]\NImag=0\\0.78513787,0.00000050,0.7
 8207222,0.,0.,0.15077640,-0.17825978,0.06548873,0.,0.78283921,0.186916
 87,-0.32398643,0.,0.00132703,0.78437112,0.,0.,-0.07110057,0.,0.,0.1507
 7639,-0.05955519,0.13970337,0.,-0.39685053,-0.06071436,0.,0.78283921,0
 .04325194,0.04607401,0.,0.06071436,-0.10539660,0.,-0.00132703,0.784371
 12,0.,0.,0.00759881,0.,0.,-0.07110051,0.,0.,0.15077639,-0.00504215,0.,
 0.,-0.05955519,-0.04325194,0.,-0.17825978,-0.18691687,0.,0.78513787,0.
 ,-0.11304776,0.,-0.13970337,0.04607401,0.,-0.06548873,-0.32398643,0.,-
 0.00000050,0.78207222,0.,0.,-0.00429121,0.,0.,0.00759881,0.,0.,-0.0711
 0057,0.,0.,0.15077640,-0.05955516,-0.13970336,0.,-0.08604606,0.0467675
 1,0.,0.09888859,0.04822561,0.,-0.17825999,0.06548911,0.,0.78283806,-0.
 04325194,0.04607400,0.,0.04676750,-0.03204347,0.,-0.04822561,-0.112370
 09,0.,0.18691727,-0.32398712,0.,0.00132654,0.78437201,0.,0.,0.00759880
 ,0.,0.,-0.00429121,0.,0.,0.00759881,0.,0.,-0.07110050,0.,0.,0.15077642
 ,-0.17825999,-0.06548911,0.,0.09888859,-0.04822561,0.,-0.08604606,-0.0
 4676751,0.,-0.05955516,0.13970336,0.,-0.39684936,-0.06071434,0.,0.7828
 3806,-0.18691727,-0.32398712,0.,0.04822561,-0.11237009,0.,-0.04676750,
 -0.03204347,0.,0.04325194,0.04607400,0.,0.06071434,-0.10539664,0.,-0.0
 0132654,0.78437201,0.,0.,-0.07110050,0.,0.,0.00759881,0.,0.,-0.0042912
 1,0.,0.,0.00759880,0.,0.,-0.07110060,0.,0.,0.15077642,-0.31349530,-0.0
 0000011,0.,-0.02459283,0.01129957,0.,-0.00018847,0.00163953,0.,0.00039
 827,0.,0.,-0.00018847,-0.00163953,0.,-0.02459281,-0.01129957,0.,0.3629
 2557,-0.00000010,-0.03809718,0.,0.03043939,-0.00533643,0.,0.00099625,-
 0.00322457,0.,0.,0.00021470,0.,-0.00099625,-0.00322457,0.,-0.03043940,
 -0.00533644,0.,0.00000011,0.05545111,0.,0.,-0.04248629,0.,0.,0.0056550
 0,0.,0.,0.00582087,0.,0.,0.00005286,0.,0.,0.00582089,0.,0.,0.00565499,
 0.,0.,0.02408393,0.00792286,0.01166626,0.,-0.10694691,-0.11925069,0.,-
 0.02822403,-0.02834308,0.,-0.00360705,0.00097738,0.,0.00026056,0.00007
 978,0.,-0.00132435,0.00165213,0.,0.00019071,0.00053124,0.,0.13231980,-
 0.00747340,-0.03785215,0.,-0.11925067,-0.24464585,0.,-0.00920333,-0.00
 170524,0.,0.00033417,0.00019384,0.,0.00007985,0.00035261,0.,0.00229522
 ,-0.00208899,0.,0.00032962,-0.00030629,0.,0.13314037,0.28605692,0.,0.,
 0.00565500,0.,0.,-0.04248628,0.,0.,0.00565499,0.,0.,0.00582089,0.,0.,0
 .00005286,0.,0.,0.00582087,0.,0.,-0.00149297,0.,0.,0.02408392,-0.00360
 705,-0.00097738,0.,-0.02822403,0.02834308,0.,-0.10694691,0.11925069,0.
 ,0.00792286,-0.01166626,0.,-0.00132435,-0.00165213,0.,0.00026056,-0.00
 007978,0.,-0.00027291,0.00063014,0.,-0.00055462,0.00010074,0.,0.132319
 80,-0.00033417,0.00019384,0.,0.00920333,-0.00170524,0.,0.11925067,-0.2
 4464585,0.,0.00747340,-0.03785215,0.,-0.00229522,-0.00208899,0.,-0.000
 07985,0.00035261,0.,-0.00000943,0.00008546,0.,-0.00010074,0.00043926,0
 .,-0.13314037,0.28605692,0.,0.,0.00582089,0.,0.,0.00565499,0.,0.,-0.04
 248628,0.,0.,0.00565500,0.,0.,0.00582087,0.,0.,0.00005286,0.,0.,-0.000
 32633,0.,0.,-0.00149297,0.,0.,0.02408392,0.00039827,0.,0.,-0.00018847,
 -0.00163953,0.,-0.02459283,-0.01129957,0.,-0.31349530,0.00000011,0.,-0
 .02459281,0.01129957,0.,-0.00018847,0.00163953,0.,-0.00010173,0.,0.,-0
 .00027291,0.00000943,0.,0.00019071,-0.00032962,0.,0.36292557,0.,0.0002
 1470,0.,-0.00099625,-0.00322457,0.,-0.03043939,-0.00533643,0.,0.000000
 10,-0.03809718,0.,0.03043940,-0.00533644,0.,0.00099625,-0.00322457,0.,
 0.,-0.00000478,0.,-0.00063014,0.00008546,0.,-0.00053124,-0.00030629,0.
 ,-0.00000011,0.05545111,0.,0.,0.00005286,0.,0.,0.00582087,0.,0.,0.0056
 5500,0.,0.,-0.04248629,0.,0.,0.00565499,0.,0.,0.00582089,0.,0.,-0.0009
 6367,0.,0.,-0.00032633,0.,0.,-0.00149297,0.,0.,0.02408393,-0.00360705,
 0.00097738,0.,0.00026057,0.00007978,0.,-0.00132435,0.00165213,0.,0.007
 92286,0.01166628,0.,-0.10694677,-0.11925061,0.,-0.02822402,-0.02834308
 ,0.,-0.00027291,-0.00063014,0.,-0.00002891,-0.00004212,0.,0.00026463,0
 .00031978,0.,0.00019071,0.00053124,0.,0.13231964,0.00033417,0.00019384
 ,0.,0.00007985,0.00035261,0.,0.00229522,-0.00208899,0.,-0.00747340,-0.
 03785215,0.,-0.11925057,-0.24464599,0.,-0.00920334,-0.00170525,0.,0.00
 000943,0.00008546,0.,-0.00004212,-0.00007752,0.,-0.00031978,-0.0004520
 6,0.,0.00032962,-0.00030629,0.,0.13314028,0.28605705,0.,0.,0.00582087,
 0.,0.,0.00005286,0.,0.,0.00582089,0.,0.,0.00565499,0.,0.,-0.04248628,0
 .,0.,0.00565499,0.,0.,-0.00032633,0.,0.,-0.00096367,0.,0.,-0.00032633,
 0.,0.,-0.00149297,0.,0.,0.02408392,0.00792286,-0.01166628,0.,-0.001324
 35,-0.00165213,0.,0.00026057,-0.00007978,0.,-0.00360705,-0.00097738,0.
 ,-0.02822402,0.02834308,0.,-0.10694677,0.11925061,0.,0.00019071,-0.000
 53124,0.,0.00026463,-0.00031978,0.,-0.00002891,0.00004212,0.,-0.000272
 91,0.00063014,0.,-0.00055463,0.00010074,0.,0.13231964,0.00747340,-0.03
 785215,0.,-0.00229522,-0.00208899,0.,-0.00007985,0.00035261,0.,-0.0003
 3417,0.00019384,0.,0.00920334,-0.00170525,0.,0.11925057,-0.24464599,0.
 ,-0.00032962,-0.00030629,0.,0.00031978,-0.00045206,0.,0.00004212,-0.00
 007752,0.,-0.00000943,0.00008546,0.,-0.00010074,0.00043927,0.,-0.13314
 028,0.28605705,0.,0.,0.00565499,0.,0.,0.00582089,0.,0.,0.00005286,0.,0
 .,0.00582087,0.,0.,0.00565499,0.,0.,-0.04248628,0.,0.,-0.00149297,0.,0
 .,-0.00032633,0.,0.,-0.00096367,0.,0.,-0.00032633,0.,0.,-0.00149297,0.
 ,0.,0.02408392\\-0.00000030,0.00000014,0.,-0.00000004,-0.00000034,0.,0
 .00000004,-0.00000034,0.,0.00000030,0.00000014,0.,0.00000039,0.0000001
 9,0.,-0.00000039,0.00000019,0.,-0.00000174,-0.00000003,0.,-0.00000088,
 -0.00000148,0.,0.00000088,-0.00000148,0.,0.00000174,-0.00000003,0.,0.0
 0000085,0.00000151,0.,-0.00000085,0.00000151,0.\\\@


 ...THOSE SCIENCES ARE VAIN AND FULL OF ERRORS WHICH 
 ARE NOT BORN FROM EXPERIMENT, THE MOTHER OF CERTAINTY...

                          -- LEONARDO DA VINCI, 1452-1519
 Job cpu time:  0 days  0 hours  0 minutes  0.8 seconds.
 File lengths (MBytes):  RWF=    147 Int=      0 D2E=      0 Chk=      2 Scr=      2
 Normal termination of Gaussian 09 at Mon Dec 22 20:07:02 2014.
