 Entering Gaussian System, Link 0=g09
 Initial command:
 /users/humeniuka/software/qc/gaussian-09.A02/g09/l1.exe /users/humeniuka/Gaussian2py-0.0.1/Gaussian2py/test_hessian/Gau-14444.inp -scrdir=/users/humeniuka/Gaussian2py-0.0.1/Gaussian2py/test_hessian/
 Entering Link 1 = /users/humeniuka/software/qc/gaussian-09.A02/g09/l1.exe PID=     14447.
  
 Copyright (c) 1988,1990,1992,1993,1995,1998,2003,2009, Gaussian, Inc.
                  All Rights Reserved.
  
 This is part of the Gaussian(R) 09 program.  It is based on
 the Gaussian(R) 03 system (copyright 2003, Gaussian, Inc.),
 the Gaussian(R) 98 system (copyright 1998, Gaussian, Inc.),
 the Gaussian(R) 94 system (copyright 1995, Gaussian, Inc.),
 the Gaussian 92(TM) system (copyright 1992, Gaussian, Inc.),
 the Gaussian 90(TM) system (copyright 1990, Gaussian, Inc.),
 the Gaussian 88(TM) system (copyright 1988, Gaussian, Inc.),
 the Gaussian 86(TM) system (copyright 1986, Carnegie Mellon
 University), and the Gaussian 82(TM) system (copyright 1983,
 Carnegie Mellon University). Gaussian is a federally registered
 trademark of Gaussian, Inc.
  
 This software contains proprietary and confidential information,
 including trade secrets, belonging to Gaussian, Inc.
  
 This software is provided under written license and may be
 used, copied, transmitted, or stored only in accord with that
 written license.
  
 The following legend is applicable only to US Government
 contracts under FAR:
  
                    RESTRICTED RIGHTS LEGEND
  
 Use, reproduction and disclosure by the US Government is
 subject to restrictions as set forth in subparagraphs (a)
 and (c) of the Commercial Computer Software - Restricted
 Rights clause in FAR 52.227-19.
  
 Gaussian, Inc.
 340 Quinnipiac St., Bldg. 40, Wallingford CT 06492
  
  
 ---------------------------------------------------------------
 Warning -- This program may not be used in any manner that
 competes with the business of Gaussian, Inc. or will provide
 assistance to any competitor of Gaussian, Inc.  The licensee
 of this program is prohibited from giving any competitor of
 Gaussian, Inc. access to this program.  By using this program,
 the user acknowledges that Gaussian, Inc. is engaged in the
 business of creating and licensing software in the field of
 computational chemistry and represents and warrants to the
 licensee that it is not a competitor of Gaussian, Inc. and that
 it will not use this program in any manner prohibited above.
 ---------------------------------------------------------------
  

 Cite this work as:
 Gaussian 09, Revision A.02,
 M. J. Frisch, G. W. Trucks, H. B. Schlegel, G. E. Scuseria, 
 M. A. Robb, J. R. Cheeseman, G. Scalmani, V. Barone, B. Mennucci, 
 G. A. Petersson, H. Nakatsuji, M. Caricato, X. Li, H. P. Hratchian, 
 A. F. Izmaylov, J. Bloino, G. Zheng, J. L. Sonnenberg, M. Hada, 
 M. Ehara, K. Toyota, R. Fukuda, J. Hasegawa, M. Ishida, T. Nakajima, 
 Y. Honda, O. Kitao, H. Nakai, T. Vreven, J. A. Montgomery, Jr., 
 J. E. Peralta, F. Ogliaro, M. Bearpark, J. J. Heyd, E. Brothers, 
 K. N. Kudin, V. N. Staroverov, R. Kobayashi, J. Normand, 
 K. Raghavachari, A. Rendell, J. C. Burant, S. S. Iyengar, J. Tomasi, 
 M. Cossi, N. Rega, J. M. Millam, M. Klene, J. E. Knox, J. B. Cross, 
 V. Bakken, C. Adamo, J. Jaramillo, R. Gomperts, R. E. Stratmann, 
 O. Yazyev, A. J. Austin, R. Cammi, C. Pomelli, J. W. Ochterski, 
 R. L. Martin, K. Morokuma, V. G. Zakrzewski, G. A. Voth, 
 P. Salvador, J. J. Dannenberg, S. Dapprich, A. D. Daniels, 
 O. Farkas, J. B. Foresman, J. V. Ortiz, J. Cioslowski, 
 and D. J. Fox, Gaussian, Inc., Wallingford CT, 2009.
 
 ******************************************
 Gaussian 09:  EM64L-G09RevA.02 11-Jun-2009
                22-Dec-2014 
 ******************************************
 ---------------
 #P AM1 Opt Freq
 ---------------
 1/14=-1,18=20,19=15,26=1,38=1/1,3;
 2/9=110,12=2,17=6,18=5,40=1/2;
 3/5=2,16=1,25=1,41=700000,71=1/1,2,3;
 4/35=1/1;
 5/5=2,35=1,38=5/2;
 6/7=2,8=2,9=2,10=2,28=1/1;
 7//1,2,3,16;
 1/14=-1,18=20,19=15/3(2);
 2/9=110/2;
 99//99;
 2/9=110/2;
 3/5=2,16=1,25=1,41=700000,71=1,135=20/1,2,3;
 4/5=5,16=3,35=1/1;
 5/5=2,35=1,38=5/2;
 7//1,2,3,16;
 1/14=-1,18=20,19=15/3(-5);
 2/9=110/2;
 6/7=2,8=2,9=2,10=2,19=2,28=1/1;
 99/9=1/99;
 Leave Link    1 at Mon Dec 22 20:42:07 2014, MaxMem=          0 cpu:       0.0
 (Enter /users/humeniuka/software/qc/gaussian-09.A02/g09/l101.exe)
 ---
 cs2
 ---
 Symbolic Z-matrix:
 Charge =  0 Multiplicity = 1
 S                     1.632     0.        0. 
 C                     0.        0.        0. 
 S                    -1.632     0.        0. 
 
 NAtoms=      3 NQM=      3 NQMF=      0 NMic=      0 NMicF=      0 NTot=      3.
                    Isotopes and Nuclear Properties:
 (Nuclear quadrupole moments (NQMom) in fm**2, nuclear magnetic moments (NMagM)
  in nuclear magnetons)

  Atom         1           2           3
 IAtWgt=          32          12          32
 AtmWgt=  31.9720718  12.0000000  31.9720718
 NucSpn=           0           0           0
 AtZEff=   0.0000000   0.0000000   0.0000000
 NQMom=    0.0000000   0.0000000   0.0000000
 NMagM=    0.0000000   0.0000000   0.0000000
 Leave Link  101 at Mon Dec 22 20:42:07 2014, MaxMem=   33554432 cpu:       0.0
 (Enter /users/humeniuka/software/qc/gaussian-09.A02/g09/l103.exe)

 GradGradGradGradGradGradGradGradGradGradGradGradGradGradGradGradGradGrad
 Berny optimization.
 Initialization pass.
                           ----------------------------
                           !    Initial Parameters    !
                           ! (Angstroms and Degrees)  !
 --------------------------                            --------------------------
 ! Name  Definition              Value          Derivative Info.                !
 --------------------------------------------------------------------------------
 ! R1    R(1,2)                  1.632          estimate D2E/DX2                !
 ! R2    R(2,3)                  1.632          estimate D2E/DX2                !
 ! A1    L(1,2,3,-2,-1)        180.0            estimate D2E/DX2                !
 ! A2    L(1,2,3,-3,-2)        180.0            estimate D2E/DX2                !
 --------------------------------------------------------------------------------
 Trust Radius=3.00D-01 FncErr=1.00D-07 GrdErr=1.00D-07
 Number of steps in this run=  20 maximum allowed number of steps= 100.
 GradGradGradGradGradGradGradGradGradGradGradGradGradGradGradGradGradGrad

 Leave Link  103 at Mon Dec 22 20:42:07 2014, MaxMem=   33554432 cpu:       0.0
 (Enter /users/humeniuka/software/qc/gaussian-09.A02/g09/l202.exe)
                          Input orientation:                          
 ---------------------------------------------------------------------
 Center     Atomic      Atomic             Coordinates (Angstroms)
 Number     Number       Type             X           Y           Z
 ---------------------------------------------------------------------
      1         16           0        1.632000    0.000000    0.000000
      2          6           0        0.000000    0.000000    0.000000
      3         16           0       -1.632000    0.000000    0.000000
 ---------------------------------------------------------------------
                    Distance matrix (angstroms):
                    1          2          3
     1  S    0.000000
     2  C    1.632000   0.000000
     3  S    3.264000   1.632000   0.000000
 Stoichiometry    CS2
 Framework group  D*H[O(C),C*(S.S)]
 Deg. of freedom     1
 Full point group                 D*H     NOp   8
 Largest Abelian subgroup         D2H     NOp   8
 Largest concise Abelian subgroup C2      NOp   2
                         Standard orientation:                         
 ---------------------------------------------------------------------
 Center     Atomic      Atomic             Coordinates (Angstroms)
 Number     Number       Type             X           Y           Z
 ---------------------------------------------------------------------
      1         16           0        0.000000    0.000000    1.632000
      2          6           0        0.000000    0.000000    0.000000
      3         16           0        0.000000    0.000000   -1.632000
 ---------------------------------------------------------------------
 Rotational constants (GHZ):      0.0000000      2.9674001      2.9674001
 Leave Link  202 at Mon Dec 22 20:42:07 2014, MaxMem=   33554432 cpu:       0.0
 (Enter /users/humeniuka/software/qc/gaussian-09.A02/g09/l301.exe)
 Standard basis: VSTO-6G (5D, 7F)
 Ernie: Thresh=  0.10000D-02 Tol=  0.10000D-05 Strict=F.
  NNHCO=     0 NNPyr=     0 NCTC=     0               EPep=         0.000000000
    EC=        18.007188044  ECS=         0.395737548   EG=         0.014372719
   EHC=         0.000000000  EAt=       -18.531956426  AtH=         0.483960825
 EPDDG=         0.000000000  ECC=        18.417298310 EAtT=        19.015917251
 There are     3 symmetry adapted basis functions of AG  symmetry.
 There are     0 symmetry adapted basis functions of B1G symmetry.
 There are     1 symmetry adapted basis functions of B2G symmetry.
 There are     1 symmetry adapted basis functions of B3G symmetry.
 There are     0 symmetry adapted basis functions of AU  symmetry.
 There are     3 symmetry adapted basis functions of B1U symmetry.
 There are     2 symmetry adapted basis functions of B2U symmetry.
 There are     2 symmetry adapted basis functions of B3U symmetry.
 Integral buffers will be    131072 words long.
 Regular integral format.
 Two-electron integral symmetry is turned off.
    12 basis functions,    72 primitive gaussians,    12 cartesian basis functions
     8 alpha electrons        8 beta electrons
       nuclear repulsion energy        37.4332155610 Hartrees.
 IExCor=    0 DFT=F Ex=HF Corr=None ExCW=0 ScaHFX=  1.000000
 ScaDFX=  1.000000  1.000000  1.000000  1.000000 ScalE2=  1.000000  1.000000
 IRadAn=      0 IRanWt=     -1 IRanGd=            0 ICorTp=0
 Leave Link  301 at Mon Dec 22 20:42:07 2014, MaxMem=   33554432 cpu:       0.0
 (Enter /users/humeniuka/software/qc/gaussian-09.A02/g09/l302.exe)
 Do NDO integrals.
 NPDir=0 NMtPBC=     1 NCelOv=     1 NCel=       1 NClECP=     1 NCelD=      1
         NCelK=      1 NCelE2=     1 NClLst=     1 CellRange=     0.0.
 One-electron integrals computed using PRISM.
 NBasis=    12 RedAO= F  NBF=     3     0     1     1     0     3     2     2
 NBsUse=    12 1.00D-04 NBFU=     3     0     1     1     0     3     2     2
 Leave Link  302 at Mon Dec 22 20:42:08 2014, MaxMem=   33554432 cpu:       0.0
 (Enter /users/humeniuka/software/qc/gaussian-09.A02/g09/l303.exe)
 DipDrv:  MaxL=1.
 Leave Link  303 at Mon Dec 22 20:42:08 2014, MaxMem=   33554432 cpu:       0.0
 (Enter /users/humeniuka/software/qc/gaussian-09.A02/g09/l401.exe)
 Simple Huckel Guess.
 Initial guess orbital symmetries:
       Occupied  (SGG) (SGU) (SGG) (PIU) (PIU) (SGU) (PIG) (PIG)
       Virtual   (PIU) (PIU) (SGG) (SGU)
 The electronic state of the initial guess is 1-SGG.
 Leave Link  401 at Mon Dec 22 20:42:08 2014, MaxMem=   33554432 cpu:       0.0
 (Enter /users/humeniuka/software/qc/gaussian-09.A02/g09/l502.exe)
 Closed shell SCF:
 Requested convergence on RMS density matrix=1.00D-08 within 128 cycles.
 Requested convergence on MAX density matrix=1.00D-06.
 Requested convergence on             energy=1.00D-06.
 No special actions if energy rises.
 Using DIIS extrapolation, IDIIS=  1040.
 Overlap will be assumed to be unity.
 Two-electron integral symmetry not used.
 Keep J ints in memory in canonical form, NReq=879097.
 IEnd=       78618 IEndB=       78618 NGot=    33554432 MDV=    33492424
 LenX=    33492424 LenY=    33491542
 Symmetry not used in FoFDir.
 MinBra= 0 MaxBra= 1 Meth= 8.
 IRaf=       0 NMat=   1 IRICut=       1 DoRegI=T DoRafI=F ISym2E= 0 JSym2E=0.

 Cycle   1  Pass 1  IDiag  1:
 E= 0.214220159487311    
 DIIS: error= 3.96D-02 at cycle   1 NSaved=   1.
 NSaved= 1 IEnMin= 1 EnMin= 0.214220159487311     IErMin= 1 ErrMin= 3.96D-02
 ErrMax= 3.96D-02 EMaxC= 1.00D-01 BMatC= 2.65D-02 BMatP= 2.65D-02
 IDIUse=3 WtCom= 6.04D-01 WtEn= 3.96D-01
 Coeff-Com:  0.100D+01
 Coeff-En:   0.100D+01
 Coeff:      0.100D+01
 GapD=    2.000 DampG=2.000 DampE=0.500 DampFc=1.0000 IDamp=-1.
 RMSDP=3.79D-02 MaxDP=1.88D-01              OVMax= 0.00D+00

 Cycle   2  Pass 1  IDiag  1:
 E= 0.863950138462855E-01 Delta-E=       -0.127825145641 Rises=F Damp=F
 DIIS: error= 7.95D-03 at cycle   2 NSaved=   2.
 NSaved= 2 IEnMin= 2 EnMin= 0.863950138462855E-01 IErMin= 2 ErrMin= 7.95D-03
 ErrMax= 7.95D-03 EMaxC= 1.00D-01 BMatC= 1.76D-03 BMatP= 2.65D-02
 IDIUse=3 WtCom= 9.21D-01 WtEn= 7.95D-02
 Coeff-Com: -0.194D+00 0.119D+01
 Coeff-En:   0.000D+00 0.100D+01
 Coeff:     -0.179D+00 0.118D+01
 RMSDP=1.07D-02 MaxDP=4.74D-02 DE=-1.28D-01 OVMax= 0.00D+00

 Cycle   3  Pass 1  IDiag  3:
 E= 0.767300938323530E-01 Delta-E=       -0.009664920014 Rises=F Damp=F
 DIIS: error= 2.08D-03 at cycle   3 NSaved=   3.
 NSaved= 3 IEnMin= 3 EnMin= 0.767300938323530E-01 IErMin= 3 ErrMin= 2.08D-03
 ErrMax= 2.08D-03 EMaxC= 1.00D-01 BMatC= 1.60D-04 BMatP= 1.76D-03
 IDIUse=3 WtCom= 9.79D-01 WtEn= 2.08D-02
 Coeff-Com:  0.578D-01-0.615D+00 0.156D+01
 Coeff-En:   0.000D+00 0.000D+00 0.100D+01
 Coeff:      0.566D-01-0.602D+00 0.155D+01
 Gap=     0.297 Goal=   None    Shift=    0.000
 Fock symm off for IB=6 I1=    1 I=    6 J=    2 Cut=1.00D-07 Err=2.70D-03
 Fock matrix is not symmetric: symmetry in diagonalization turned off.
 RMSDP=4.96D-03 MaxDP=2.15D-02 DE=-9.66D-03 OVMax= 0.00D+00

 Cycle   4  Pass 1  IDiag  3:
 E= 0.756508765078792E-01 Delta-E=       -0.001079217324 Rises=F Damp=F
 DIIS: error= 1.77D-04 at cycle   4 NSaved=   4.
 NSaved= 4 IEnMin= 4 EnMin= 0.756508765078792E-01 IErMin= 4 ErrMin= 1.77D-04
 ErrMax= 1.77D-04 EMaxC= 1.00D-01 BMatC= 4.94D-07 BMatP= 1.60D-04
 IDIUse=3 WtCom= 9.98D-01 WtEn= 1.77D-03
 Coeff-Com: -0.978D-02 0.666D-01-0.186D+00 0.113D+01
 Coeff-En:   0.000D+00 0.000D+00 0.000D+00 0.100D+01
 Coeff:     -0.977D-02 0.665D-01-0.186D+00 0.113D+01
 Gap=     0.297 Goal=   None    Shift=    0.000
 RMSDP=2.12D-04 MaxDP=1.11D-03 DE=-1.08D-03 OVMax= 0.00D+00

 Cycle   5  Pass 1  IDiag  3:
 E= 0.756488302995493E-01 Delta-E=       -0.000002046208 Rises=F Damp=F
 DIIS: error= 3.27D-05 at cycle   5 NSaved=   5.
 NSaved= 5 IEnMin= 5 EnMin= 0.756488302995493E-01 IErMin= 5 ErrMin= 3.27D-05
 ErrMax= 3.27D-05 EMaxC= 1.00D-01 BMatC= 1.92D-08 BMatP= 4.94D-07
 IDIUse=1 WtCom= 1.00D+00 WtEn= 0.00D+00
 Coeff-Com: -0.625D-03 0.221D-01-0.533D-01-0.197D+00 0.123D+01
 Coeff:     -0.625D-03 0.221D-01-0.533D-01-0.197D+00 0.123D+01
 Gap=     0.297 Goal=   None    Shift=    0.000
 RMSDP=3.53D-05 MaxDP=1.22D-04 DE=-2.05D-06 OVMax= 0.00D+00

 Cycle   6  Pass 1  IDiag  3:
 E= 0.756487521962725E-01 Delta-E=       -0.000000078103 Rises=F Damp=F
 DIIS: error= 3.52D-06 at cycle   6 NSaved=   6.
 NSaved= 6 IEnMin= 6 EnMin= 0.756487521962725E-01 IErMin= 6 ErrMin= 3.52D-06
 ErrMax= 3.52D-06 EMaxC= 1.00D-01 BMatC= 2.41D-10 BMatP= 1.92D-08
 IDIUse=1 WtCom= 1.00D+00 WtEn= 0.00D+00
 Coeff-Com:  0.188D-02-0.578D-01 0.144D+00 0.406D+00-0.291D+01 0.341D+01
 Coeff:      0.188D-02-0.578D-01 0.144D+00 0.406D+00-0.291D+01 0.341D+01
 Gap=     0.297 Goal=   None    Shift=    0.000
 RMSDP=1.50D-05 MaxDP=8.80D-05 DE=-7.81D-08 OVMax= 0.00D+00

 Cycle   7  Pass 1  IDiag  3:
 E= 0.756487566910877E-01 Delta-E=        0.000000004495 Rises=F Damp=F
 DIIS: error= 8.14D-06 at cycle   7 NSaved=   7.
 NSaved= 7 IEnMin= 6 EnMin= 0.756487521962725E-01 IErMin= 6 ErrMin= 3.52D-06
 ErrMax= 8.14D-06 EMaxC= 1.00D-01 BMatC= 1.17D-09 BMatP= 2.41D-10
 IDIUse=1 WtCom= 1.00D+00 WtEn= 0.00D+00
 Coeff-Com:  0.765D-04-0.250D-02 0.549D-02 0.273D-01-0.159D+00 0.675D+00
 Coeff-Com:  0.454D+00
 Coeff:      0.765D-04-0.250D-02 0.549D-02 0.273D-01-0.159D+00 0.675D+00
 Coeff:      0.454D+00
 Gap=     0.297 Goal=   None    Shift=    0.000
 RMSDP=9.89D-06 MaxDP=5.87D-05 DE= 4.49D-09 OVMax= 0.00D+00

 Cycle   8  Pass 1  IDiag  3:
 E= 0.756487510272663E-01 Delta-E=       -0.000000005664 Rises=F Damp=F
 DIIS: error= 3.75D-07 at cycle   8 NSaved=   8.
 NSaved= 8 IEnMin= 8 EnMin= 0.756487510272663E-01 IErMin= 8 ErrMin= 3.75D-07
 ErrMax= 3.75D-07 EMaxC= 1.00D-01 BMatC= 2.44D-12 BMatP= 2.41D-10
 IDIUse=1 WtCom= 1.00D+00 WtEn= 0.00D+00
 Coeff-Com: -0.958D-06 0.279D-04-0.135D-04-0.782D-03 0.472D-02-0.766D-01
 Coeff-Com: -0.105D+00 0.118D+01
 Coeff:     -0.958D-06 0.279D-04-0.135D-04-0.782D-03 0.472D-02-0.766D-01
 Coeff:     -0.105D+00 0.118D+01
 Gap=     0.297 Goal=   None    Shift=    0.000
 RMSDP=4.90D-07 MaxDP=2.90D-06 DE=-5.66D-09 OVMax= 0.00D+00

 Cycle   9  Pass 1  IDiag  3:
 E= 0.756487510151445E-01 Delta-E=       -0.000000000012 Rises=F Damp=F
 DIIS: error= 5.30D-09 at cycle   9 NSaved=   9.
 NSaved= 9 IEnMin= 9 EnMin= 0.756487510151445E-01 IErMin= 9 ErrMin= 5.30D-09
 ErrMax= 5.30D-09 EMaxC= 1.00D-01 BMatC= 4.99D-16 BMatP= 2.44D-12
 IDIUse=1 WtCom= 1.00D+00 WtEn= 0.00D+00
 Coeff-Com:  0.966D-06-0.273D-04 0.238D-05 0.881D-03-0.518D-02 0.876D-01
 Coeff-Com:  0.121D+00-0.132D+01 0.212D+01
 Coeff:      0.966D-06-0.273D-04 0.238D-05 0.881D-03-0.518D-02 0.876D-01
 Coeff:      0.121D+00-0.132D+01 0.212D+01
 Gap=     0.297 Goal=   None    Shift=    0.000
 RMSDP=1.36D-08 MaxDP=8.03D-08 DE=-1.21D-11 OVMax= 0.00D+00

 Cycle  10  Pass 1  IDiag  3:
 E= 0.756487510151445E-01 Delta-E=        0.000000000000 Rises=F Damp=F
 DIIS: error= 5.36D-09 at cycle  10 NSaved=  10.
 NSaved=10 IEnMin= 9 EnMin= 0.756487510151445E-01 IErMin= 9 ErrMin= 5.30D-09
 ErrMax= 5.36D-09 EMaxC= 1.00D-01 BMatC= 5.04D-16 BMatP= 4.99D-16
 IDIUse=1 WtCom= 1.00D+00 WtEn= 0.00D+00
 Large coefficients: NSaved= 10 BigCof=    0.00 CofMax=   10.00 Det=-8.46D-26
 Inversion failed.  Reducing to  9 matrices.
 Coeff-Com: -0.769D-10 0.189D-07-0.230D-05-0.249D-04 0.902D-03 0.122D-02
 Coeff-Com: -0.307D-01 0.481D-01 0.980D+00
 Coeff:     -0.769D-10 0.189D-07-0.230D-05-0.249D-04 0.902D-03 0.122D-02
 Coeff:     -0.307D-01 0.481D-01 0.980D+00
 Gap=     0.297 Goal=   None    Shift=    0.000
 RMSDP=6.85D-09 MaxDP=4.06D-08 DE= 0.00D+00 OVMax= 0.00D+00

 Cycle  11  Pass 2  IDiag  1:
 RMSDP=6.85D-09 MaxDP=4.06D-08 DE= 0.00D+00 OVMax= 0.00D+00

 SCF Done:  E(RAM1) =  0.756487510151E-01 A.U. after   11 cycles
             Convg  =    0.6845D-08             -V/T =  1.0025
 KE=-3.050900450053D+01 PE=-3.514718494392D+01 EE= 2.829862263445D+01
 Leave Link  502 at Mon Dec 22 20:42:09 2014, MaxMem=   33554432 cpu:       0.0
 (Enter /users/humeniuka/software/qc/gaussian-09.A02/g09/l601.exe)
 Copying SCF densities to generalized density rwf, IOpCl= 0 IROHF=0.

 **********************************************************************

            Population analysis using the SCF density.

 **********************************************************************

 Orbital symmetries:
       Occupied  (SGG) (SGU) (SGG) (PIU) (PIU) (SGU) (PIG) (PIG)
       Virtual   (PIU) (PIU) (SGG) (SGU)
 The electronic state is 1-SGG.
 Alpha  occ. eigenvalues --   -1.07610  -0.75324  -0.52757  -0.49518  -0.49518
 Alpha  occ. eigenvalues --   -0.48212  -0.35004  -0.35004
 Alpha virt. eigenvalues --   -0.05321  -0.05321  -0.00001   0.02723
          Condensed to atoms (all electrons):
              1          2          3
     1  S    5.859316   0.000000   0.000000
     2  C    0.000000   4.281367   0.000000
     3  S    0.000000   0.000000   5.859316
 Mulliken atomic charges:
              1
     1  S    0.140684
     2  C   -0.281367
     3  S    0.140684
 Sum of Mulliken atomic charges =   0.00000
 Mulliken charges with hydrogens summed into heavy atoms:
              1
     1  S    0.140684
     2  C   -0.281367
     3  S    0.140684
 Sum of Mulliken charges with hydrogens summed into heavy atoms =   0.00000
 Charge=              0.0000 electrons
 Dipole moment (field-independent basis, Debye):
    X=              0.0000    Y=              0.0000    Z=              0.0000  Tot=              0.0000
 N-N= 3.743321556101D+01 E-N=-3.514718481142D+01  KE=-3.050900450053D+01
 Leave Link  601 at Mon Dec 22 20:42:09 2014, MaxMem=   33554432 cpu:       0.0
 (Enter /users/humeniuka/software/qc/gaussian-09.A02/g09/l701.exe)
 Compute integral first derivatives.
 ... and contract with generalized density number  0.
 Leave Link  701 at Mon Dec 22 20:42:09 2014, MaxMem=   33554432 cpu:       0.0
 (Enter /users/humeniuka/software/qc/gaussian-09.A02/g09/l702.exe)
 L702 exits ... SP integral derivatives will be done elsewhere.
 Leave Link  702 at Mon Dec 22 20:42:09 2014, MaxMem=   33554432 cpu:       0.0
 (Enter /users/humeniuka/software/qc/gaussian-09.A02/g09/l703.exe)
 Compute integral first derivatives, UseDBF=F ICtDFT=           0.
 Integral derivatives from FoFDir, PRISM(SPDF).
 Calling FoFJK, ICntrl=      2127 FMM=F ISym2X=1 I1Cent= 0 IOpClX= 0 NMat=1 NMatS=1 NMatT=0.
 FoFCou: FMM=F IPFlag=           0 FMFlag=      100000 FMFlg1=         800
         NFxFlg=           0 DoJE=F BraDBF=F KetDBF=F FulRan=T
         Omega=  0.000000  0.000000  1.000000  0.000000  0.000000 ICntrl=    2127 IOpCl=  0
         NMat0=    1 NMatS0=    1 NMatT0=    0 NMatD0=    1 NMtDS0=    0 NMtDT0=    0
         I1Cent=           0 NGrid=           0.
 Symmetry not used in FoFCou.
 Leave Link  703 at Mon Dec 22 20:42:09 2014, MaxMem=   33554432 cpu:       0.0
 (Enter /users/humeniuka/software/qc/gaussian-09.A02/g09/l716.exe)
 Dipole        =-1.80361518D-15-7.47742640D-18-3.19744231D-14
 ***** Axes restored to original set *****
 -------------------------------------------------------------------
 Center     Atomic                   Forces (Hartrees/Bohr)
 Number     Number              X              Y              Z
 -------------------------------------------------------------------
      1       16          -0.129657304    0.000000000    0.000000000
      2        6           0.000000000    0.000000000    0.000000000
      3       16           0.129657304    0.000000000    0.000000000
 -------------------------------------------------------------------
 Cartesian Forces:  Max     0.129657304 RMS     0.061121039
 Leave Link  716 at Mon Dec 22 20:42:09 2014, MaxMem=   33554432 cpu:       0.0
 (Enter /users/humeniuka/software/qc/gaussian-09.A02/g09/l103.exe)

 GradGradGradGradGradGradGradGradGradGradGradGradGradGradGradGradGradGrad
 Berny optimization.
 Internal  Forces:  Max     0.129657304 RMS     0.091681559
 Search for a local minimum.
 Step number   1 out of a maximum of   20
 All quantities printed in internal units (Hartrees-Bohrs-Radians)
 RMS Force = .91682D-01 SwitMx=.10000D-02 MixMth= 1
 Mixed Optimization -- RFO/linear search
 Second derivative matrix not updated -- first step.
 The second derivative matrix:
                          R1        R2        A1        A2
           R1           0.45497
           R2           0.00000   0.45497
           A1           0.00000   0.00000   0.02593
           A2           0.00000   0.00000   0.00000   0.02593
     Eigenvalues ---    0.02593   0.02593   0.45497   0.45497
 RFO step:  Lambda=-6.46994431D-02 EMin= 2.59261932D-02
 Linear search not attempted -- first point.
 Maximum step size (   0.300) exceeded in Quadratic search.
    -- Step size scaled by   0.850
 Iteration  1 RMS(Cart)=  0.14142136 RMS(Int)=  0.00857864
 Iteration  2 RMS(Cart)=  0.00857864 RMS(Int)=  0.00000000
 Iteration  3 RMS(Cart)=  0.00000000 RMS(Int)=  0.00000000
 ClnCor:  largest displacement from symmetrization is 7.01D-15 for atom     2.
 Variable       Old X    -DE/DX   Delta X   Delta X   Delta X     New X
                                 (Linear)    (Quad)   (Total)
    R1        3.08403  -0.12966   0.00000  -0.21213  -0.21213   2.87190
    R2        3.08403  -0.12966   0.00000  -0.21213  -0.21213   2.87190
    A1        3.14159   0.00000   0.00000   0.00000   0.00000   3.14159
    A2        3.14159   0.00000   0.00000   0.00000   0.00000   3.14159
         Item               Value     Threshold  Converged?
 Maximum Force            0.129657     0.000450     NO 
 RMS     Force            0.091682     0.000300     NO 
 Maximum Displacement     0.212132     0.001800     NO 
 RMS     Displacement     0.150000     0.001200     NO 
 Predicted change in Energy=-3.453549D-02
 GradGradGradGradGradGradGradGradGradGradGradGradGradGradGradGradGradGrad

 Leave Link  103 at Mon Dec 22 20:42:09 2014, MaxMem=   33554432 cpu:       0.0
 (Enter /users/humeniuka/software/qc/gaussian-09.A02/g09/l202.exe)
                          Input orientation:                          
 ---------------------------------------------------------------------
 Center     Atomic      Atomic             Coordinates (Angstroms)
 Number     Number       Type             X           Y           Z
 ---------------------------------------------------------------------
      1         16           0        1.519745    0.000000    0.000000
      2          6           0        0.000000    0.000000    0.000000
      3         16           0       -1.519745    0.000000    0.000000
 ---------------------------------------------------------------------
                    Distance matrix (angstroms):
                    1          2          3
     1  S    0.000000
     2  C    1.519745   0.000000
     3  S    3.039489   1.519745   0.000000
 Stoichiometry    CS2
 Framework group  D*H[O(C),C*(S.S)]
 Deg. of freedom     1
 Full point group                 D*H     NOp   8
 Largest Abelian subgroup         D2H     NOp   8
 Largest concise Abelian subgroup C2      NOp   2
                         Standard orientation:                         
 ---------------------------------------------------------------------
 Center     Atomic      Atomic             Coordinates (Angstroms)
 Number     Number       Type             X           Y           Z
 ---------------------------------------------------------------------
      1         16           0        0.000000    0.000000    1.519745
      2          6           0        0.000000    0.000000    0.000000
      3         16           0        0.000000    0.000000   -1.519745
 ---------------------------------------------------------------------
 Rotational constants (GHZ):      0.0000000      3.4219623      3.4219623
 Leave Link  202 at Mon Dec 22 20:42:09 2014, MaxMem=   33554432 cpu:       0.0
 (Enter /users/humeniuka/software/qc/gaussian-09.A02/g09/l301.exe)
 Standard basis: VSTO-6G (5D, 7F)
 Ernie: Thresh=  0.10000D-02 Tol=  0.10000D-05 Strict=F.
  NNHCO=     0 NNPyr=     0 NCTC=     0               EPep=         0.000000000
    EC=        18.934976307  ECS=         0.552285438   EG=        -0.020133895
   EHC=         0.000000000  EAt=       -18.531956426  AtH=         0.483960825
 EPDDG=         0.000000000  ECC=        19.467127850 EAtT=        19.015917251
 There are     3 symmetry adapted basis functions of AG  symmetry.
 There are     0 symmetry adapted basis functions of B1G symmetry.
 There are     1 symmetry adapted basis functions of B2G symmetry.
 There are     1 symmetry adapted basis functions of B3G symmetry.
 There are     0 symmetry adapted basis functions of AU  symmetry.
 There are     3 symmetry adapted basis functions of B1U symmetry.
 There are     2 symmetry adapted basis functions of B2U symmetry.
 There are     2 symmetry adapted basis functions of B3U symmetry.
 Integral buffers will be    131072 words long.
 Regular integral format.
 Two-electron integral symmetry is turned off.
    12 basis functions,    72 primitive gaussians,    12 cartesian basis functions
     8 alpha electrons        8 beta electrons
       nuclear repulsion energy        38.4830451010 Hartrees.



 Warning!  S  atom    1 may be hypervalent but has no d functions.
 Warning!  S  atom    3 may be hypervalent but has no d functions.



 IExCor=    0 DFT=F Ex=HF Corr=None ExCW=0 ScaHFX=  1.000000
 ScaDFX=  1.000000  1.000000  1.000000  1.000000 ScalE2=  1.000000  1.000000
 IRadAn=      0 IRanWt=     -1 IRanGd=            0 ICorTp=0
 Leave Link  301 at Mon Dec 22 20:42:09 2014, MaxMem=   33554432 cpu:       0.0
 (Enter /users/humeniuka/software/qc/gaussian-09.A02/g09/l302.exe)
 Do NDO integrals.
 NPDir=0 NMtPBC=     1 NCelOv=     1 NCel=       1 NClECP=     1 NCelD=      1
         NCelK=      1 NCelE2=     1 NClLst=     1 CellRange=     0.0.
 One-electron integrals computed using PRISM.
 NBasis=    12 RedAO= F  NBF=     3     0     1     1     0     3     2     2
 NBsUse=    12 1.00D-04 NBFU=     3     0     1     1     0     3     2     2
 Leave Link  302 at Mon Dec 22 20:42:09 2014, MaxMem=   33554432 cpu:       0.0
 (Enter /users/humeniuka/software/qc/gaussian-09.A02/g09/l303.exe)
 DipDrv:  MaxL=1.
 Leave Link  303 at Mon Dec 22 20:42:09 2014, MaxMem=   33554432 cpu:       0.0
 (Enter /users/humeniuka/software/qc/gaussian-09.A02/g09/l401.exe)
 Initial guess read from the read-write file.
 B after Tr=     0.000000    0.000000    0.000000
         Rot=    1.000000    0.000000    0.000000    0.000000 Ang=   0.00 deg.
 Guess basis will be translated and rotated to current coordinates.
 Initial guess orbital symmetries:
       Occupied  (SGG) (SGU) (SGG) (PIU) (PIU) (SGU) (PIG) (PIG)
       Virtual   (PIU) (PIU) (SGG) (SGU)
 The electronic state of the initial guess is 1-SGG.
 Leave Link  401 at Mon Dec 22 20:42:09 2014, MaxMem=   33554432 cpu:       0.0
 (Enter /users/humeniuka/software/qc/gaussian-09.A02/g09/l502.exe)
 Closed shell SCF:
 Requested convergence on RMS density matrix=1.00D-08 within 128 cycles.
 Requested convergence on MAX density matrix=1.00D-06.
 Requested convergence on             energy=1.00D-06.
 No special actions if energy rises.
 Using DIIS extrapolation, IDIIS=  1040.
 Overlap will be assumed to be unity.
 Two-electron integral symmetry not used.
 Keep J ints in memory in canonical form, NReq=879097.
 IEnd=       78618 IEndB=       78618 NGot=    33554432 MDV=    33492424
 LenX=    33492424 LenY=    33491542
 Symmetry not used in FoFDir.
 MinBra= 0 MaxBra= 1 Meth= 8.
 IRaf=       0 NMat=   1 IRICut=       1 DoRegI=T DoRafI=F ISym2E= 0 JSym2E=0.
 An orbital has undefined symmetry, so N**3 symmetry is turned off.

 Cycle   1  Pass 1  IDiag  1:
 E= 0.394429284786071E-01
 DIIS: error= 6.15D-03 at cycle   1 NSaved=   1.
 NSaved= 1 IEnMin= 1 EnMin= 0.394429284786071E-01 IErMin= 1 ErrMin= 6.15D-03
 ErrMax= 6.15D-03 EMaxC= 1.00D-01 BMatC= 9.62D-04 BMatP= 9.62D-04
 IDIUse=3 WtCom= 9.38D-01 WtEn= 6.15D-02
 Coeff-Com:  0.100D+01
 Coeff-En:   0.100D+01
 Coeff:      0.100D+01
 GapD=    2.000 DampG=2.000 DampE=1.000 DampFc=2.0000 IDamp=-1.
 RMSDP=5.49D-03 MaxDP=2.07D-02              OVMax= 0.00D+00

 Cycle   2  Pass 1  IDiag  3:
 E= 0.355390603560295E-01 Delta-E=       -0.003903868123 Rises=F Damp=F
 DIIS: error= 2.00D-03 at cycle   2 NSaved=   2.
 NSaved= 2 IEnMin= 2 EnMin= 0.355390603560295E-01 IErMin= 2 ErrMin= 2.00D-03
 ErrMax= 2.00D-03 EMaxC= 1.00D-01 BMatC= 1.55D-04 BMatP= 9.62D-04
 IDIUse=3 WtCom= 9.80D-01 WtEn= 2.00D-02
 Coeff-Com: -0.622D+00 0.162D+01
 Coeff-En:   0.000D+00 0.100D+01
 Coeff:     -0.609D+00 0.161D+01
 Gap=     0.308 Goal=   None    Shift=    0.000
 RMSDP=3.76D-03 MaxDP=1.38D-02 DE=-3.90D-03 OVMax= 0.00D+00

 Cycle   3  Pass 1  IDiag  3:
 E= 0.347087383930074E-01 Delta-E=       -0.000830321963 Rises=F Damp=F
 DIIS: error= 2.53D-04 at cycle   3 NSaved=   3.
 NSaved= 3 IEnMin= 3 EnMin= 0.347087383930074E-01 IErMin= 3 ErrMin= 2.53D-04
 ErrMax= 2.53D-04 EMaxC= 1.00D-01 BMatC= 1.87D-06 BMatP= 1.55D-04
 IDIUse=3 WtCom= 9.97D-01 WtEn= 2.53D-03
 Coeff-Com:  0.258D+00-0.722D+00 0.146D+01
 Coeff-En:   0.000D+00 0.000D+00 0.100D+01
 Coeff:      0.257D+00-0.720D+00 0.146D+01
 Gap=     0.308 Goal=   None    Shift=    0.000
 RMSDP=3.93D-04 MaxDP=1.35D-03 DE=-8.30D-04 OVMax= 0.00D+00

 Cycle   4  Pass 1  IDiag  3:
 E= 0.347000775045672E-01 Delta-E=       -0.000008660888 Rises=F Damp=F
 DIIS: error= 2.34D-05 at cycle   4 NSaved=   4.
 NSaved= 4 IEnMin= 4 EnMin= 0.347000775045672E-01 IErMin= 4 ErrMin= 2.34D-05
 ErrMax= 2.34D-05 EMaxC= 1.00D-01 BMatC= 4.97D-09 BMatP= 1.87D-06
 IDIUse=1 WtCom= 1.00D+00 WtEn= 0.00D+00
 Coeff-Com: -0.959D-01 0.267D+00-0.559D+00 0.139D+01
 Coeff:     -0.959D-01 0.267D+00-0.559D+00 0.139D+01
 Gap=     0.308 Goal=   None    Shift=    0.000
 RMSDP=1.99D-05 MaxDP=1.56D-04 DE=-8.66D-06 OVMax= 0.00D+00

 Cycle   5  Pass 1  IDiag  3:
 E= 0.347000546295675E-01 Delta-E=       -0.000000022875 Rises=F Damp=F
 DIIS: error= 3.55D-06 at cycle   5 NSaved=   5.
 NSaved= 5 IEnMin= 5 EnMin= 0.347000546295675E-01 IErMin= 5 ErrMin= 3.55D-06
 ErrMax= 3.55D-06 EMaxC= 1.00D-01 BMatC= 2.54D-10 BMatP= 4.97D-09
 IDIUse=1 WtCom= 1.00D+00 WtEn= 0.00D+00
 Coeff-Com: -0.381D-02 0.116D-01-0.187D-01-0.949D-01 0.111D+01
 Coeff:     -0.381D-02 0.116D-01-0.187D-01-0.949D-01 0.111D+01
 Gap=     0.308 Goal=   None    Shift=    0.000
 RMSDP=5.42D-06 MaxDP=2.76D-05 DE=-2.29D-08 OVMax= 0.00D+00

 Cycle   6  Pass 1  IDiag  3:
 E= 0.347000530161807E-01 Delta-E=       -0.000000001613 Rises=F Damp=F
 DIIS: error= 4.48D-07 at cycle   6 NSaved=   6.
 NSaved= 6 IEnMin= 6 EnMin= 0.347000530161807E-01 IErMin= 6 ErrMin= 4.48D-07
 ErrMax= 4.48D-07 EMaxC= 1.00D-01 BMatC= 4.21D-12 BMatP= 2.54D-10
 IDIUse=1 WtCom= 1.00D+00 WtEn= 0.00D+00
 Coeff-Com:  0.535D-04-0.916D-04 0.279D-03-0.220D-01-0.732D-01 0.109D+01
 Coeff:      0.535D-04-0.916D-04 0.279D-03-0.220D-01-0.732D-01 0.109D+01
 Gap=     0.308 Goal=   None    Shift=    0.000
 RMSDP=7.71D-07 MaxDP=3.13D-06 DE=-1.61D-09 OVMax= 0.00D+00

 Cycle   7  Pass 1  IDiag  3:
 E= 0.347000529895922E-01 Delta-E=       -0.000000000027 Rises=F Damp=F
 DIIS: error= 1.92D-08 at cycle   7 NSaved=   7.
 NSaved= 7 IEnMin= 7 EnMin= 0.347000529895922E-01 IErMin= 7 ErrMin= 1.92D-08
 ErrMax= 1.92D-08 EMaxC= 1.00D-01 BMatC= 5.27D-15 BMatP= 4.21D-12
 IDIUse=1 WtCom= 1.00D+00 WtEn= 0.00D+00
 Coeff-Com:  0.504D-05-0.425D-04 0.398D-04 0.104D-01 0.365D-01-0.540D+00
 Coeff-Com:  0.149D+01
 Coeff:      0.504D-05-0.425D-04 0.398D-04 0.104D-01 0.365D-01-0.540D+00
 Coeff:      0.149D+01
 Gap=     0.308 Goal=   None    Shift=    0.000
 RMSDP=2.46D-08 MaxDP=1.00D-07 DE=-2.66D-11 OVMax= 0.00D+00

 Cycle   8  Pass 1  IDiag  3:
 E= 0.347000529895709E-01 Delta-E=        0.000000000000 Rises=F Damp=F
 DIIS: error= 2.52D-10 at cycle   8 NSaved=   8.
 NSaved= 8 IEnMin= 8 EnMin= 0.347000529895709E-01 IErMin= 8 ErrMin= 2.52D-10
 ErrMax= 2.52D-10 EMaxC= 1.00D-01 BMatC= 1.30D-18 BMatP= 5.27D-15
 IDIUse=1 WtCom= 1.00D+00 WtEn= 0.00D+00
 Coeff-Com:  0.331D-05-0.279D-04 0.261D-04 0.682D-02 0.239D-01-0.354D+00
 Coeff-Com:  0.979D+00 0.345D+00
 Coeff:      0.331D-05-0.279D-04 0.261D-04 0.682D-02 0.239D-01-0.354D+00
 Coeff:      0.979D+00 0.345D+00
 Gap=     0.308 Goal=   None    Shift=    0.000
 RMSDP=1.99D-10 MaxDP=6.87D-10 DE=-2.13D-14 OVMax= 0.00D+00

 Cycle   9  Pass 2  IDiag  1:
 RMSDP=1.99D-10 MaxDP=6.87D-10 DE=-2.13D-14 OVMax= 0.00D+00

 SCF Done:  E(RAM1) =  0.347000529896E-01 A.U. after    9 cycles
             Convg  =    0.1987D-09             -V/T =  1.0011
 KE=-3.057455657684D+01 PE=-3.698869016240D+01 EE= 2.911490169124D+01
 Leave Link  502 at Mon Dec 22 20:42:09 2014, MaxMem=   33554432 cpu:       0.0
 (Enter /users/humeniuka/software/qc/gaussian-09.A02/g09/l701.exe)
 Compute integral first derivatives.
 ... and contract with generalized density number  0.
 Leave Link  701 at Mon Dec 22 20:42:09 2014, MaxMem=   33554432 cpu:       0.0
 (Enter /users/humeniuka/software/qc/gaussian-09.A02/g09/l702.exe)
 L702 exits ... SP integral derivatives will be done elsewhere.
 Leave Link  702 at Mon Dec 22 20:42:09 2014, MaxMem=   33554432 cpu:       0.0
 (Enter /users/humeniuka/software/qc/gaussian-09.A02/g09/l703.exe)
 Compute integral first derivatives, UseDBF=F ICtDFT=           0.
 Integral derivatives from FoFDir, PRISM(SPDF).
 Calling FoFJK, ICntrl=      2127 FMM=F ISym2X=1 I1Cent= 0 IOpClX= 0 NMat=1 NMatS=1 NMatT=0.
 FoFCou: FMM=F IPFlag=           0 FMFlag=      100000 FMFlg1=         800
         NFxFlg=           0 DoJE=F BraDBF=F KetDBF=F FulRan=T
         Omega=  0.000000  0.000000  1.000000  0.000000  0.000000 ICntrl=    2127 IOpCl=  0
         NMat0=    1 NMatS0=    1 NMatT0=    0 NMatD0=    1 NMtDS0=    0 NMtDT0=    0
         I1Cent=           0 NGrid=           0.
 Symmetry not used in FoFCou.
 Leave Link  703 at Mon Dec 22 20:42:09 2014, MaxMem=   33554432 cpu:       0.0
 (Enter /users/humeniuka/software/qc/gaussian-09.A02/g09/l716.exe)
 Dipole        =-3.67594067D-16-2.01860753D-16-1.42108547D-14
 ***** Axes restored to original set *****
 -------------------------------------------------------------------
 Center     Atomic                   Forces (Hartrees/Bohr)
 Number     Number              X              Y              Z
 -------------------------------------------------------------------
      1       16          -0.057152349    0.000000000    0.000000000
      2        6           0.000000000    0.000000000    0.000000000
      3       16           0.057152349    0.000000000    0.000000000
 -------------------------------------------------------------------
 Cartesian Forces:  Max     0.057152349 RMS     0.026941876
 Leave Link  716 at Mon Dec 22 20:42:09 2014, MaxMem=   33554432 cpu:       0.0
 (Enter /users/humeniuka/software/qc/gaussian-09.A02/g09/l103.exe)

 GradGradGradGradGradGradGradGradGradGradGradGradGradGradGradGradGradGrad
 Berny optimization.
 Using GEDIIS/GDIIS optimizer.
 Internal  Forces:  Max     0.057152349 RMS     0.040412813
 Search for a local minimum.
 Step number   2 out of a maximum of   20
 All quantities printed in internal units (Hartrees-Bohrs-Radians)
 RMS Force = .40413D-01 SwitMx=.10000D-02 MixMth= 1
 Mixed Optimization -- RFO/linear search
 Update second derivatives using D2CorX and points    1    2
 DE= -4.09D-02 DEPred=-3.45D-02 R= 1.19D+00
 SS=  1.41D+00  RLast= 3.00D-01 DXNew= 5.0454D-01 9.0000D-01
 Trust test= 1.19D+00 RLast= 3.00D-01 DXMaxT set to 5.05D-01
 The second derivative matrix:
                          R1        R2        A1        A2
           R1           0.39838
           R2          -0.05659   0.39838
           A1           0.00000   0.00000   0.02593
           A2           0.00000   0.00000   0.00000   0.02593
 Use linear search instead of GDIIS.
     Eigenvalues ---    0.02593   0.02593   0.34179   0.45497
 RFO step:  Lambda= 0.00000000D+00 EMin= 2.59261932D-02
 Quartic linear search produced a step of  0.54925.
 Iteration  1 RMS(Cart)=  0.08238796 RMS(Int)=  0.00000000
 Iteration  2 RMS(Cart)=  0.00000000 RMS(Int)=  0.00000000
 ClnCor:  largest displacement from symmetrization is 2.46D-14 for atom     2.
 Variable       Old X    -DE/DX   Delta X   Delta X   Delta X     New X
                                 (Linear)    (Quad)   (Total)
    R1        2.87190  -0.05715  -0.11651   0.00000  -0.11651   2.75539
    R2        2.87190  -0.05715  -0.11651   0.00000  -0.11651   2.75539
    A1        3.14159   0.00000   0.00000   0.00000   0.00000   3.14159
    A2        3.14159   0.00000   0.00000   0.00000   0.00000   3.14159
         Item               Value     Threshold  Converged?
 Maximum Force            0.057152     0.000450     NO 
 RMS     Force            0.040413     0.000300     NO 
 Maximum Displacement     0.116514     0.001800     NO 
 RMS     Displacement     0.082388     0.001200     NO 
 Predicted change in Energy=-8.678107D-03
 GradGradGradGradGradGradGradGradGradGradGradGradGradGradGradGradGradGrad

 Leave Link  103 at Mon Dec 22 20:42:10 2014, MaxMem=   33554432 cpu:       0.0
 (Enter /users/humeniuka/software/qc/gaussian-09.A02/g09/l202.exe)
                          Input orientation:                          
 ---------------------------------------------------------------------
 Center     Atomic      Atomic             Coordinates (Angstroms)
 Number     Number       Type             X           Y           Z
 ---------------------------------------------------------------------
      1         16           0        1.458088    0.000000    0.000000
      2          6           0        0.000000    0.000000    0.000000
      3         16           0       -1.458088    0.000000    0.000000
 ---------------------------------------------------------------------
                    Distance matrix (angstroms):
                    1          2          3
     1  S    0.000000
     2  C    1.458088   0.000000
     3  S    2.916176   1.458088   0.000000
 Stoichiometry    CS2
 Framework group  D*H[O(C),C*(S.S)]
 Deg. of freedom     1
 Full point group                 D*H     NOp   8
 Largest Abelian subgroup         D2H     NOp   8
 Largest concise Abelian subgroup C2      NOp   2
                         Standard orientation:                         
 ---------------------------------------------------------------------
 Center     Atomic      Atomic             Coordinates (Angstroms)
 Number     Number       Type             X           Y           Z
 ---------------------------------------------------------------------
      1         16           0        0.000000    0.000000    1.458088
      2          6           0        0.000000    0.000000    0.000000
      3         16           0        0.000000    0.000000   -1.458088
 ---------------------------------------------------------------------
 Rotational constants (GHZ):      0.0000000      3.7174830      3.7174830
 Leave Link  202 at Mon Dec 22 20:42:10 2014, MaxMem=   33554432 cpu:       0.0
 (Enter /users/humeniuka/software/qc/gaussian-09.A02/g09/l301.exe)
 Standard basis: VSTO-6G (5D, 7F)
 Ernie: Thresh=  0.10000D-02 Tol=  0.10000D-05 Strict=F.
  NNHCO=     0 NNPyr=     0 NCTC=     0               EPep=         0.000000000
    EC=        19.478424590  ECS=         0.663764692   EG=        -0.050233397
   EHC=         0.000000000  EAt=       -18.531956426  AtH=         0.483960825
 EPDDG=         0.000000000  ECC=        20.091955885 EAtT=        19.015917251
 There are     3 symmetry adapted basis functions of AG  symmetry.
 There are     0 symmetry adapted basis functions of B1G symmetry.
 There are     1 symmetry adapted basis functions of B2G symmetry.
 There are     1 symmetry adapted basis functions of B3G symmetry.
 There are     0 symmetry adapted basis functions of AU  symmetry.
 There are     3 symmetry adapted basis functions of B1U symmetry.
 There are     2 symmetry adapted basis functions of B2U symmetry.
 There are     2 symmetry adapted basis functions of B3U symmetry.
 Integral buffers will be    131072 words long.
 Regular integral format.
 Two-electron integral symmetry is turned off.
    12 basis functions,    72 primitive gaussians,    12 cartesian basis functions
     8 alpha electrons        8 beta electrons
       nuclear repulsion energy        39.1078731363 Hartrees.



 Warning!  S  atom    1 may be hypervalent but has no d functions.
 Warning!  S  atom    3 may be hypervalent but has no d functions.



 IExCor=    0 DFT=F Ex=HF Corr=None ExCW=0 ScaHFX=  1.000000
 ScaDFX=  1.000000  1.000000  1.000000  1.000000 ScalE2=  1.000000  1.000000
 IRadAn=      0 IRanWt=     -1 IRanGd=            0 ICorTp=0
 Leave Link  301 at Mon Dec 22 20:42:10 2014, MaxMem=   33554432 cpu:       0.0
 (Enter /users/humeniuka/software/qc/gaussian-09.A02/g09/l302.exe)
 Do NDO integrals.
 NPDir=0 NMtPBC=     1 NCelOv=     1 NCel=       1 NClECP=     1 NCelD=      1
         NCelK=      1 NCelE2=     1 NClLst=     1 CellRange=     0.0.
 One-electron integrals computed using PRISM.
 NBasis=    12 RedAO= F  NBF=     3     0     1     1     0     3     2     2
 NBsUse=    12 1.00D-04 NBFU=     3     0     1     1     0     3     2     2
 Leave Link  302 at Mon Dec 22 20:42:10 2014, MaxMem=   33554432 cpu:       0.0
 (Enter /users/humeniuka/software/qc/gaussian-09.A02/g09/l303.exe)
 DipDrv:  MaxL=1.
 Leave Link  303 at Mon Dec 22 20:42:10 2014, MaxMem=   33554432 cpu:       0.0
 (Enter /users/humeniuka/software/qc/gaussian-09.A02/g09/l401.exe)
 Initial guess read from the read-write file.
 B after Tr=     0.000000    0.000000    0.000000
         Rot=    1.000000    0.000000    0.000000    0.000000 Ang=   0.00 deg.
 Guess basis will be translated and rotated to current coordinates.
 Initial guess orbital symmetries:
       Occupied  (SGG) (SGU) (PIU) (PIU) (SGG) (SGU) (PIG) (PIG)
       Virtual   (PIU) (PIU) (SGU) (SGG)
 The electronic state of the initial guess is 1-SGG.
 Leave Link  401 at Mon Dec 22 20:42:10 2014, MaxMem=   33554432 cpu:       0.0
 (Enter /users/humeniuka/software/qc/gaussian-09.A02/g09/l502.exe)
 Closed shell SCF:
 Requested convergence on RMS density matrix=1.00D-08 within 128 cycles.
 Requested convergence on MAX density matrix=1.00D-06.
 Requested convergence on             energy=1.00D-06.
 No special actions if energy rises.
 Using DIIS extrapolation, IDIIS=  1040.
 Overlap will be assumed to be unity.
 Two-electron integral symmetry not used.
 Keep J ints in memory in canonical form, NReq=879097.
 IEnd=       78618 IEndB=       78618 NGot=    33554432 MDV=    33492424
 LenX=    33492424 LenY=    33491542
 Symmetry not used in FoFDir.
 MinBra= 0 MaxBra= 1 Meth= 8.
 IRaf=       0 NMat=   1 IRICut=       1 DoRegI=T DoRafI=F ISym2E= 0 JSym2E=0.
 An orbital has undefined symmetry, so N**3 symmetry is turned off.

 Cycle   1  Pass 1  IDiag  1:
 E= 0.292996765688187E-01
 DIIS: error= 3.05D-03 at cycle   1 NSaved=   1.
 NSaved= 1 IEnMin= 1 EnMin= 0.292996765688187E-01 IErMin= 1 ErrMin= 3.05D-03
 ErrMax= 3.05D-03 EMaxC= 1.00D-01 BMatC= 3.03D-04 BMatP= 3.03D-04
 IDIUse=3 WtCom= 9.69D-01 WtEn= 3.05D-02
 Coeff-Com:  0.100D+01
 Coeff-En:   0.100D+01
 Coeff:      0.100D+01
 GapD=    2.000 DampG=2.000 DampE=1.000 DampFc=2.0000 IDamp=-1.
 RMSDP=2.98D-03 MaxDP=1.24D-02              OVMax= 0.00D+00

 Cycle   2  Pass 1  IDiag  3:
 E= 0.280978859004506E-01 Delta-E=       -0.001201790668 Rises=F Damp=F
 DIIS: error= 1.31D-03 at cycle   2 NSaved=   2.
 NSaved= 2 IEnMin= 2 EnMin= 0.280978859004506E-01 IErMin= 2 ErrMin= 1.31D-03
 ErrMax= 1.31D-03 EMaxC= 1.00D-01 BMatC= 5.08D-05 BMatP= 3.03D-04
 IDIUse=3 WtCom= 9.87D-01 WtEn= 1.31D-02
 Coeff-Com: -0.634D+00 0.163D+01
 Coeff-En:   0.000D+00 0.100D+01
 Coeff:     -0.625D+00 0.163D+01
 Gap=     0.313 Goal=   None    Shift=    0.000
 RMSDP=2.09D-03 MaxDP=8.61D-03 DE=-1.20D-03 OVMax= 0.00D+00

 Cycle   3  Pass 1  IDiag  3:
 E= 0.278320959638947E-01 Delta-E=       -0.000265789937 Rises=F Damp=F
 DIIS: error= 1.52D-04 at cycle   3 NSaved=   3.
 NSaved= 3 IEnMin= 3 EnMin= 0.278320959638947E-01 IErMin= 3 ErrMin= 1.52D-04
 ErrMax= 1.52D-04 EMaxC= 1.00D-01 BMatC= 7.40D-07 BMatP= 5.08D-05
 IDIUse=3 WtCom= 9.98D-01 WtEn= 1.52D-03
 Coeff-Com:  0.275D+00-0.763D+00 0.149D+01
 Coeff-En:   0.000D+00 0.000D+00 0.100D+01
 Coeff:      0.274D+00-0.762D+00 0.149D+01
 Gap=     0.313 Goal=   None    Shift=    0.000
 RMSDP=2.31D-04 MaxDP=9.48D-04 DE=-2.66D-04 OVMax= 0.00D+00

 Cycle   4  Pass 1  IDiag  3:
 E= 0.278289638808928E-01 Delta-E=       -0.000003132083 Rises=F Damp=F
 DIIS: error= 1.32D-05 at cycle   4 NSaved=   4.
 NSaved= 4 IEnMin= 4 EnMin= 0.278289638808928E-01 IErMin= 4 ErrMin= 1.32D-05
 ErrMax= 1.32D-05 EMaxC= 1.00D-01 BMatC= 1.79D-09 BMatP= 7.40D-07
 IDIUse=1 WtCom= 1.00D+00 WtEn= 0.00D+00
 Coeff-Com: -0.132D+00 0.365D+00-0.727D+00 0.149D+01
 Coeff:     -0.132D+00 0.365D+00-0.727D+00 0.149D+01
 Gap=     0.313 Goal=   None    Shift=    0.000
 RMSDP=1.28D-05 MaxDP=8.87D-05 DE=-3.13D-06 OVMax= 0.00D+00

 Cycle   5  Pass 1  IDiag  3:
 E= 0.278289540546126E-01 Delta-E=       -0.000000009826 Rises=F Damp=F
 DIIS: error= 1.25D-06 at cycle   5 NSaved=   5.
 NSaved= 5 IEnMin= 5 EnMin= 0.278289540546126E-01 IErMin= 5 ErrMin= 1.25D-06
 ErrMax= 1.25D-06 EMaxC= 1.00D-01 BMatC= 3.68D-11 BMatP= 1.79D-09
 IDIUse=1 WtCom= 1.00D+00 WtEn= 0.00D+00
 Coeff-Com: -0.129D-01 0.361D-01-0.685D-01 0.110D-01 0.103D+01
 Coeff:     -0.129D-01 0.361D-01-0.685D-01 0.110D-01 0.103D+01
 Gap=     0.313 Goal=   None    Shift=    0.000
 RMSDP=2.14D-06 MaxDP=9.72D-06 DE=-9.83D-09 OVMax= 0.00D+00

 Cycle   6  Pass 1  IDiag  3:
 E= 0.278289538180019E-01 Delta-E=       -0.000000000237 Rises=F Damp=F
 DIIS: error= 1.11D-07 at cycle   6 NSaved=   6.
 NSaved= 6 IEnMin= 6 EnMin= 0.278289538180019E-01 IErMin= 6 ErrMin= 1.11D-07
 ErrMax= 1.11D-07 EMaxC= 1.00D-01 BMatC= 3.02D-13 BMatP= 3.68D-11
 IDIUse=1 WtCom= 1.00D+00 WtEn= 0.00D+00
 Coeff-Com:  0.695D-03-0.195D-02 0.357D-02 0.578D-02-0.177D+00 0.117D+01
 Coeff:      0.695D-03-0.195D-02 0.357D-02 0.578D-02-0.177D+00 0.117D+01
 Gap=     0.313 Goal=   None    Shift=    0.000
 RMSDP=2.01D-07 MaxDP=9.65D-07 DE=-2.37D-10 OVMax= 0.00D+00

 Cycle   7  Pass 1  IDiag  3:
 E= 0.278289538162042E-01 Delta-E=       -0.000000000002 Rises=F Damp=F
 DIIS: error= 1.41D-08 at cycle   7 NSaved=   7.
 NSaved= 7 IEnMin= 7 EnMin= 0.278289538162042E-01 IErMin= 7 ErrMin= 1.41D-08
 ErrMax= 1.41D-08 EMaxC= 1.00D-01 BMatC= 3.39D-15 BMatP= 3.02D-13
 IDIUse=1 WtCom= 1.00D+00 WtEn= 0.00D+00
 Coeff-Com:  0.406D-06-0.989D-06 0.803D-04-0.410D-02 0.674D-01-0.516D+00
 Coeff-Com:  0.145D+01
 Coeff:      0.406D-06-0.989D-06 0.803D-04-0.410D-02 0.674D-01-0.516D+00
 Coeff:      0.145D+01
 Gap=     0.313 Goal=   None    Shift=    0.000
 RMSDP=2.03D-08 MaxDP=8.13D-08 DE=-1.80D-12 OVMax= 0.00D+00

 Cycle   8  Pass 1  IDiag  3:
 E= 0.278289538161829E-01 Delta-E=        0.000000000000 Rises=F Damp=F
 DIIS: error= 1.99D-11 at cycle   8 NSaved=   8.
 NSaved= 8 IEnMin= 8 EnMin= 0.278289538161829E-01 IErMin= 8 ErrMin= 1.99D-11
 ErrMax= 1.99D-11 EMaxC= 1.00D-01 BMatC= 7.34D-21 BMatP= 3.39D-15
 IDIUse=1 WtCom= 1.00D+00 WtEn= 0.00D+00
 Coeff-Com: -0.370D-06 0.893D-06-0.733D-04 0.375D-02-0.616D-01 0.472D+00
 Coeff-Com: -0.133D+01 0.192D+01
 Coeff:     -0.370D-06 0.893D-06-0.733D-04 0.375D-02-0.616D-01 0.472D+00
 Coeff:     -0.133D+01 0.192D+01
 Gap=     0.313 Goal=   None    Shift=    0.000
 RMSDP=3.04D-11 MaxDP=1.05D-10 DE=-2.13D-14 OVMax= 0.00D+00

 Cycle   9  Pass 2  IDiag  1:
 RMSDP=3.04D-11 MaxDP=1.05D-10 DE=-2.13D-14 OVMax= 0.00D+00

 SCF Done:  E(RAM1) =  0.278289538162E-01 A.U. after    9 cycles
             Convg  =    0.3036D-10             -V/T =  1.0009
 KE=-3.060629575985D+01 PE=-3.805929626347D+01 EE= 2.958554784080D+01
 Leave Link  502 at Mon Dec 22 20:42:10 2014, MaxMem=   33554432 cpu:       0.0
 (Enter /users/humeniuka/software/qc/gaussian-09.A02/g09/l701.exe)
 Compute integral first derivatives.
 ... and contract with generalized density number  0.
 Leave Link  701 at Mon Dec 22 20:42:10 2014, MaxMem=   33554432 cpu:       0.0
 (Enter /users/humeniuka/software/qc/gaussian-09.A02/g09/l702.exe)
 L702 exits ... SP integral derivatives will be done elsewhere.
 Leave Link  702 at Mon Dec 22 20:42:10 2014, MaxMem=   33554432 cpu:       0.0
 (Enter /users/humeniuka/software/qc/gaussian-09.A02/g09/l703.exe)
 Compute integral first derivatives, UseDBF=F ICtDFT=           0.
 Integral derivatives from FoFDir, PRISM(SPDF).
 Calling FoFJK, ICntrl=      2127 FMM=F ISym2X=1 I1Cent= 0 IOpClX= 0 NMat=1 NMatS=1 NMatT=0.
 FoFCou: FMM=F IPFlag=           0 FMFlag=      100000 FMFlg1=         800
         NFxFlg=           0 DoJE=F BraDBF=F KetDBF=F FulRan=T
         Omega=  0.000000  0.000000  1.000000  0.000000  0.000000 ICntrl=    2127 IOpCl=  0
         NMat0=    1 NMatS0=    1 NMatT0=    0 NMatD0=    1 NMtDS0=    0 NMtDT0=    0
         I1Cent=           0 NGrid=           0.
 Symmetry not used in FoFCou.
 Leave Link  703 at Mon Dec 22 20:42:10 2014, MaxMem=   33554432 cpu:       0.0
 (Enter /users/humeniuka/software/qc/gaussian-09.A02/g09/l716.exe)
 Dipole        = 1.20758294D-15 2.00560139D-17-1.77635684D-14
 ***** Axes restored to original set *****
 -------------------------------------------------------------------
 Center     Atomic                   Forces (Hartrees/Bohr)
 Number     Number              X              Y              Z
 -------------------------------------------------------------------
      1       16           0.000662403    0.000000000    0.000000000
      2        6           0.000000000    0.000000000    0.000000000
      3       16          -0.000662403    0.000000000    0.000000000
 -------------------------------------------------------------------
 Cartesian Forces:  Max     0.000662403 RMS     0.000312260
 Leave Link  716 at Mon Dec 22 20:42:10 2014, MaxMem=   33554432 cpu:       0.0
 (Enter /users/humeniuka/software/qc/gaussian-09.A02/g09/l103.exe)

 GradGradGradGradGradGradGradGradGradGradGradGradGradGradGradGradGradGrad
 Berny optimization.
 Using GEDIIS/GDIIS optimizer.
 Internal  Forces:  Max     0.000662403 RMS     0.000468390
 Search for a local minimum.
 Step number   3 out of a maximum of   20
 All quantities printed in internal units (Hartrees-Bohrs-Radians)
 RMS Force = .46839D-03 SwitMx=.10000D-02 MixMth= 2
 Mixed Optimization -- En-DIIS/RFO-DIIS
 Update second derivatives using D2CorX and points    1    2    3
 DE= -6.87D-03 DEPred=-8.68D-03 R= 7.92D-01
 SS=  1.41D+00  RLast= 1.65D-01 DXNew= 8.4853D-01 4.9433D-01
 Trust test= 7.92D-01 RLast= 1.65D-01 DXMaxT set to 5.05D-01
 The second derivative matrix:
                          R1        R2        A1        A2
           R1           0.47558
           R2           0.02062   0.47558
           A1           0.00000   0.00000   0.02593
           A2           0.00000   0.00000   0.00000   0.02593
 Use linear search instead of GDIIS.
     Eigenvalues ---    0.02593   0.02593   0.45497   0.49620
 RFO step:  Lambda= 0.00000000D+00 EMin= 2.59261932D-02
 Quartic linear search produced a step of -0.01014.
 Iteration  1 RMS(Cart)=  0.00083522 RMS(Int)=  0.00000000
 Iteration  2 RMS(Cart)=  0.00000000 RMS(Int)=  0.00000000
 ClnCor:  largest displacement from symmetrization is 1.15D-14 for atom     2.
 Variable       Old X    -DE/DX   Delta X   Delta X   Delta X     New X
                                 (Linear)    (Quad)   (Total)
    R1        2.75539   0.00066   0.00118   0.00000   0.00118   2.75657
    R2        2.75539   0.00066   0.00118   0.00000   0.00118   2.75657
    A1        3.14159   0.00000   0.00000   0.00000   0.00000   3.14159
    A2        3.14159   0.00000   0.00000   0.00000   0.00000   3.14159
         Item               Value     Threshold  Converged?
 Maximum Force            0.000662     0.000450     NO 
 RMS     Force            0.000468     0.000300     NO 
 Maximum Displacement     0.001181     0.001800     YES
 RMS     Displacement     0.000835     0.001200     YES
 Predicted change in Energy=-8.725379D-07
 GradGradGradGradGradGradGradGradGradGradGradGradGradGradGradGradGradGrad

 Leave Link  103 at Mon Dec 22 20:42:10 2014, MaxMem=   33554432 cpu:       0.0
 (Enter /users/humeniuka/software/qc/gaussian-09.A02/g09/l202.exe)
                          Input orientation:                          
 ---------------------------------------------------------------------
 Center     Atomic      Atomic             Coordinates (Angstroms)
 Number     Number       Type             X           Y           Z
 ---------------------------------------------------------------------
      1         16           0        1.458713    0.000000    0.000000
      2          6           0        0.000000    0.000000    0.000000
      3         16           0       -1.458713    0.000000    0.000000
 ---------------------------------------------------------------------
                    Distance matrix (angstroms):
                    1          2          3
     1  S    0.000000
     2  C    1.458713   0.000000
     3  S    2.917426   1.458713   0.000000
 Stoichiometry    CS2
 Framework group  D*H[O(C),C*(S.S)]
 Deg. of freedom     1
 Full point group                 D*H     NOp   8
 Largest Abelian subgroup         D2H     NOp   8
 Largest concise Abelian subgroup C2      NOp   2
                         Standard orientation:                         
 ---------------------------------------------------------------------
 Center     Atomic      Atomic             Coordinates (Angstroms)
 Number     Number       Type             X           Y           Z
 ---------------------------------------------------------------------
      1         16           0        0.000000    0.000000    1.458713
      2          6           0        0.000000    0.000000    0.000000
      3         16           0        0.000000    0.000000   -1.458713
 ---------------------------------------------------------------------
 Rotational constants (GHZ):      0.0000000      3.7142979      3.7142979
 Leave Link  202 at Mon Dec 22 20:42:10 2014, MaxMem=   33554432 cpu:       0.0
 (Enter /users/humeniuka/software/qc/gaussian-09.A02/g09/l301.exe)
 Standard basis: VSTO-6G (5D, 7F)
 Ernie: Thresh=  0.10000D-02 Tol=  0.10000D-05 Strict=F.
  NNHCO=     0 NNPyr=     0 NCTC=     0               EPep=         0.000000000
    EC=        19.472789212  ECS=         0.662526708   EG=        -0.049878823
   EHC=         0.000000000  EAt=       -18.531956426  AtH=         0.483960825
 EPDDG=         0.000000000  ECC=        20.085437098 EAtT=        19.015917251
 There are     3 symmetry adapted basis functions of AG  symmetry.
 There are     0 symmetry adapted basis functions of B1G symmetry.
 There are     1 symmetry adapted basis functions of B2G symmetry.
 There are     1 symmetry adapted basis functions of B3G symmetry.
 There are     0 symmetry adapted basis functions of AU  symmetry.
 There are     3 symmetry adapted basis functions of B1U symmetry.
 There are     2 symmetry adapted basis functions of B2U symmetry.
 There are     2 symmetry adapted basis functions of B3U symmetry.
 Integral buffers will be    131072 words long.
 Regular integral format.
 Two-electron integral symmetry is turned off.
    12 basis functions,    72 primitive gaussians,    12 cartesian basis functions
     8 alpha electrons        8 beta electrons
       nuclear repulsion energy        39.1013543486 Hartrees.



 Warning!  S  atom    1 may be hypervalent but has no d functions.
 Warning!  S  atom    3 may be hypervalent but has no d functions.



 IExCor=    0 DFT=F Ex=HF Corr=None ExCW=0 ScaHFX=  1.000000
 ScaDFX=  1.000000  1.000000  1.000000  1.000000 ScalE2=  1.000000  1.000000
 IRadAn=      0 IRanWt=     -1 IRanGd=            0 ICorTp=0
 Leave Link  301 at Mon Dec 22 20:42:10 2014, MaxMem=   33554432 cpu:       0.0
 (Enter /users/humeniuka/software/qc/gaussian-09.A02/g09/l302.exe)
 Do NDO integrals.
 NPDir=0 NMtPBC=     1 NCelOv=     1 NCel=       1 NClECP=     1 NCelD=      1
         NCelK=      1 NCelE2=     1 NClLst=     1 CellRange=     0.0.
 One-electron integrals computed using PRISM.
 NBasis=    12 RedAO= F  NBF=     3     0     1     1     0     3     2     2
 NBsUse=    12 1.00D-04 NBFU=     3     0     1     1     0     3     2     2
 Leave Link  302 at Mon Dec 22 20:42:10 2014, MaxMem=   33554432 cpu:       0.0
 (Enter /users/humeniuka/software/qc/gaussian-09.A02/g09/l303.exe)
 DipDrv:  MaxL=1.
 Leave Link  303 at Mon Dec 22 20:42:10 2014, MaxMem=   33554432 cpu:       0.0
 (Enter /users/humeniuka/software/qc/gaussian-09.A02/g09/l401.exe)
 Initial guess read from the read-write file.
 B after Tr=     0.000000    0.000000    0.000000
         Rot=    1.000000    0.000000    0.000000    0.000000 Ang=   0.00 deg.
 Guess basis will be translated and rotated to current coordinates.
 Initial guess orbital symmetries:
       Occupied  (SGG) (SGU) (PIU) (PIU) (SGG) (SGU) (PIG) (PIG)
       Virtual   (PIU) (PIU) (SGU) (SGG)
 The electronic state of the initial guess is 1-SGG.
 Leave Link  401 at Mon Dec 22 20:42:10 2014, MaxMem=   33554432 cpu:       0.0
 (Enter /users/humeniuka/software/qc/gaussian-09.A02/g09/l502.exe)
 Closed shell SCF:
 Requested convergence on RMS density matrix=1.00D-08 within 128 cycles.
 Requested convergence on MAX density matrix=1.00D-06.
 Requested convergence on             energy=1.00D-06.
 No special actions if energy rises.
 Using DIIS extrapolation, IDIIS=  1040.
 Overlap will be assumed to be unity.
 Two-electron integral symmetry not used.
 Keep J ints in memory in canonical form, NReq=879097.
 IEnd=       78618 IEndB=       78618 NGot=    33554432 MDV=    33492424
 LenX=    33492424 LenY=    33491542
 Symmetry not used in FoFDir.
 MinBra= 0 MaxBra= 1 Meth= 8.
 IRaf=       0 NMat=   1 IRICut=       1 DoRegI=T DoRafI=F ISym2E= 0 JSym2E=0.

 Cycle   1  Pass 1  IDiag  1:
 E= 0.278283255820355E-01
 DIIS: error= 3.25D-05 at cycle   1 NSaved=   1.
 NSaved= 1 IEnMin= 1 EnMin= 0.278283255820355E-01 IErMin= 1 ErrMin= 3.25D-05
 ErrMax= 3.25D-05 EMaxC= 1.00D-01 BMatC= 3.14D-08 BMatP= 3.14D-08
 IDIUse=1 WtCom= 1.00D+00 WtEn= 0.00D+00
 Coeff-Com:  0.100D+01
 Coeff:      0.100D+01
 RMSDP=3.03D-05 MaxDP=1.31D-04              OVMax= 0.00D+00

 Cycle   2  Pass 1  IDiag  3:
 E= 0.278282011380426E-01 Delta-E=       -0.000000124444 Rises=F Damp=F
 DIIS: error= 1.39D-05 at cycle   2 NSaved=   2.
 NSaved= 2 IEnMin= 2 EnMin= 0.278282011380426E-01 IErMin= 2 ErrMin= 1.39D-05
 ErrMax= 1.39D-05 EMaxC= 1.00D-01 BMatC= 5.28D-09 BMatP= 3.14D-08
 IDIUse=1 WtCom= 1.00D+00 WtEn= 0.00D+00
 Coeff-Com: -0.640D+00 0.164D+01
 Coeff:     -0.640D+00 0.164D+01
 Gap=     0.313 Goal=   None    Shift=    0.000
 Fock symm off for IB=4 I1=    1 I=    5 J=    1 Cut=1.00D-07 Err=5.97D-06
 Fock matrix is not symmetric: symmetry in diagonalization turned off.
 RMSDP=2.13D-05 MaxDP=9.23D-05 DE=-1.24D-07 OVMax= 0.00D+00

 Cycle   3  Pass 1  IDiag  3:
 E= 0.278281736941679E-01 Delta-E=       -0.000000027444 Rises=F Damp=F
 DIIS: error= 1.48D-06 at cycle   3 NSaved=   3.
 NSaved= 3 IEnMin= 3 EnMin= 0.278281736941679E-01 IErMin= 3 ErrMin= 1.48D-06
 ErrMax= 1.48D-06 EMaxC= 1.00D-01 BMatC= 6.85D-11 BMatP= 5.28D-09
 IDIUse=1 WtCom= 1.00D+00 WtEn= 0.00D+00
 Coeff-Com:  0.279D+00-0.762D+00 0.148D+01
 Coeff:      0.279D+00-0.762D+00 0.148D+01
 Gap=     0.313 Goal=   None    Shift=    0.000
 RMSDP=2.15D-06 MaxDP=9.19D-06 DE=-2.74D-08 OVMax= 0.00D+00

 Cycle   4  Pass 1  IDiag  3:
 E= 0.278281734176105E-01 Delta-E=       -0.000000000277 Rises=F Damp=F
 DIIS: error= 1.15D-07 at cycle   4 NSaved=   4.
 NSaved= 4 IEnMin= 4 EnMin= 0.278281734176105E-01 IErMin= 4 ErrMin= 1.15D-07
 ErrMax= 1.15D-07 EMaxC= 1.00D-01 BMatC= 1.71D-13 BMatP= 6.85D-11
 IDIUse=1 WtCom= 1.00D+00 WtEn= 0.00D+00
 Coeff-Com: -0.174D+00 0.475D+00-0.933D+00 0.163D+01
 Coeff:     -0.174D+00 0.475D+00-0.933D+00 0.163D+01
 Gap=     0.313 Goal=   None    Shift=    0.000
 RMSDP=1.46D-07 MaxDP=7.82D-07 DE=-2.77D-10 OVMax= 0.00D+00

 Cycle   5  Pass 1  IDiag  3:
 E= 0.278281734165517E-01 Delta-E=       -0.000000000001 Rises=F Damp=F
 DIIS: error= 3.52D-09 at cycle   5 NSaved=   5.
 NSaved= 5 IEnMin= 5 EnMin= 0.278281734165517E-01 IErMin= 5 ErrMin= 3.52D-09
 ErrMax= 3.52D-09 EMaxC= 1.00D-01 BMatC= 2.61D-16 BMatP= 1.71D-13
 IDIUse=1 WtCom= 1.00D+00 WtEn= 0.00D+00
 Coeff-Com:  0.530D-02-0.144D-01 0.280D-01-0.842D-01 0.107D+01
 Coeff:      0.530D-02-0.144D-01 0.280D-01-0.842D-01 0.107D+01
 Gap=     0.313 Goal=   None    Shift=    0.000
 RMSDP=5.95D-09 MaxDP=2.52D-08 DE=-1.06D-12 OVMax= 0.00D+00

 Cycle   6  Pass 2  IDiag  1:
 RMSDP=5.95D-09 MaxDP=2.52D-08 DE=-1.06D-12 OVMax= 0.00D+00

 SCF Done:  E(RAM1) =  0.278281734166E-01 A.U. after    6 cycles
             Convg  =    0.5945D-08             -V/T =  1.0009
 KE=-3.060599198871D+01 PE=-3.804823540744D+01 EE= 2.958070122091D+01
 Leave Link  502 at Mon Dec 22 20:42:11 2014, MaxMem=   33554432 cpu:       0.0
 (Enter /users/humeniuka/software/qc/gaussian-09.A02/g09/l701.exe)
 Compute integral first derivatives.
 ... and contract with generalized density number  0.
 Leave Link  701 at Mon Dec 22 20:42:11 2014, MaxMem=   33554432 cpu:       0.0
 (Enter /users/humeniuka/software/qc/gaussian-09.A02/g09/l702.exe)
 L702 exits ... SP integral derivatives will be done elsewhere.
 Leave Link  702 at Mon Dec 22 20:42:11 2014, MaxMem=   33554432 cpu:       0.0
 (Enter /users/humeniuka/software/qc/gaussian-09.A02/g09/l703.exe)
 Compute integral first derivatives, UseDBF=F ICtDFT=           0.
 Integral derivatives from FoFDir, PRISM(SPDF).
 Calling FoFJK, ICntrl=      2127 FMM=F ISym2X=1 I1Cent= 0 IOpClX= 0 NMat=1 NMatS=1 NMatT=0.
 FoFCou: FMM=F IPFlag=           0 FMFlag=      100000 FMFlg1=         800
         NFxFlg=           0 DoJE=F BraDBF=F KetDBF=F FulRan=T
         Omega=  0.000000  0.000000  1.000000  0.000000  0.000000 ICntrl=    2127 IOpCl=  0
         NMat0=    1 NMatS0=    1 NMatT0=    0 NMatD0=    1 NMtDS0=    0 NMtDT0=    0
         I1Cent=           0 NGrid=           0.
 Symmetry not used in FoFCou.
 Leave Link  703 at Mon Dec 22 20:42:11 2014, MaxMem=   33554432 cpu:       0.0
 (Enter /users/humeniuka/software/qc/gaussian-09.A02/g09/l716.exe)
 Dipole        = 1.39791222D-16 3.50009529D-16-3.55271368D-15
 ***** Axes restored to original set *****
 -------------------------------------------------------------------
 Center     Atomic                   Forces (Hartrees/Bohr)
 Number     Number              X              Y              Z
 -------------------------------------------------------------------
      1       16          -0.000001417    0.000000000    0.000000000
      2        6           0.000000000    0.000000000    0.000000000
      3       16           0.000001417    0.000000000    0.000000000
 -------------------------------------------------------------------
 Cartesian Forces:  Max     0.000001417 RMS     0.000000668
 Leave Link  716 at Mon Dec 22 20:42:11 2014, MaxMem=   33554432 cpu:       0.0
 (Enter /users/humeniuka/software/qc/gaussian-09.A02/g09/l103.exe)

 GradGradGradGradGradGradGradGradGradGradGradGradGradGradGradGradGradGrad
 Berny optimization.
 Using GEDIIS/GDIIS optimizer.
 Internal  Forces:  Max     0.000001417 RMS     0.000001002
 Search for a local minimum.
 Step number   4 out of a maximum of   20
 All quantities printed in internal units (Hartrees-Bohrs-Radians)
 RMS Force = .10020D-05 SwitMx=.10000D-02 MixMth= 2
 Mixed Optimization -- En-DIIS/RFO-DIIS
 Swaping is turned off.
 Update second derivatives using D2CorX and points    1    2    3    4
 DE= -7.80D-07 DEPred=-8.73D-07 R= 8.94D-01
 Trust test= 8.94D-01 RLast= 1.67D-03 DXMaxT set to 5.05D-01
 The second derivative matrix:
                          R1        R2        A1        A2
           R1           0.50848
           R2           0.05352   0.50848
           A1           0.00000   0.00000   0.02593
           A2           0.00000   0.00000   0.00000   0.02593
     Eigenvalues ---    0.02593   0.02593   0.45497   0.56200
 En-DIIS/RFO-DIIS IScMMF=        0 using points:     4    3
 RFO step:  Lambda= 0.00000000D+00.
 DIIS coeffs:      0.99787      0.00213
 Iteration  1 RMS(Cart)=  0.00000178 RMS(Int)=  0.00000000
 Iteration  2 RMS(Cart)=  0.00000000 RMS(Int)=  0.00000000
 ClnCor:  largest displacement from symmetrization is 3.77D-14 for atom     2.
 Variable       Old X    -DE/DX   Delta X   Delta X   Delta X     New X
                                  (DIIS)     (GDIIS)  (Total)
    R1        2.75657   0.00000   0.00000   0.00000   0.00000   2.75657
    R2        2.75657   0.00000   0.00000   0.00000   0.00000   2.75657
    A1        3.14159   0.00000   0.00000   0.00000   0.00000   3.14159
    A2        3.14159   0.00000   0.00000   0.00000   0.00000   3.14159
         Item               Value     Threshold  Converged?
 Maximum Force            0.000001     0.000450     YES
 RMS     Force            0.000001     0.000300     YES
 Maximum Displacement     0.000003     0.001800     YES
 RMS     Displacement     0.000002     0.001200     YES
 Predicted change in Energy=-3.573025D-12
 Optimization completed.
    -- Stationary point found.
                           ----------------------------
                           !   Optimized Parameters   !
                           ! (Angstroms and Degrees)  !
 --------------------------                            --------------------------
 ! Name  Definition              Value          Derivative Info.                !
 --------------------------------------------------------------------------------
 ! R1    R(1,2)                  1.4587         -DE/DX =    0.0                 !
 ! R2    R(2,3)                  1.4587         -DE/DX =    0.0                 !
 ! A1    L(1,2,3,-2,-1)        180.0            -DE/DX =    0.0                 !
 ! A2    L(1,2,3,-3,-2)        180.0            -DE/DX =    0.0                 !
 --------------------------------------------------------------------------------
 GradGradGradGradGradGradGradGradGradGradGradGradGradGradGradGradGradGrad

 Largest change from initial coordinates is atom    1       0.173 Angstoms.
 Leave Link  103 at Mon Dec 22 20:42:11 2014, MaxMem=   33554432 cpu:       0.0
 (Enter /users/humeniuka/software/qc/gaussian-09.A02/g09/l202.exe)
                          Input orientation:                          
 ---------------------------------------------------------------------
 Center     Atomic      Atomic             Coordinates (Angstroms)
 Number     Number       Type             X           Y           Z
 ---------------------------------------------------------------------
      1         16           0        1.458713    0.000000    0.000000
      2          6           0        0.000000    0.000000    0.000000
      3         16           0       -1.458713    0.000000    0.000000
 ---------------------------------------------------------------------
                    Distance matrix (angstroms):
                    1          2          3
     1  S    0.000000
     2  C    1.458713   0.000000
     3  S    2.917426   1.458713   0.000000
 Stoichiometry    CS2
 Framework group  D*H[O(C),C*(S.S)]
 Deg. of freedom     1
 Full point group                 D*H     NOp   8
 Largest Abelian subgroup         D2H     NOp   8
 Largest concise Abelian subgroup C2      NOp   2
                         Standard orientation:                         
 ---------------------------------------------------------------------
 Center     Atomic      Atomic             Coordinates (Angstroms)
 Number     Number       Type             X           Y           Z
 ---------------------------------------------------------------------
      1         16           0        0.000000    0.000000    1.458713
      2          6           0        0.000000    0.000000    0.000000
      3         16           0        0.000000    0.000000   -1.458713
 ---------------------------------------------------------------------
 Rotational constants (GHZ):      0.0000000      3.7142979      3.7142979
 Leave Link  202 at Mon Dec 22 20:42:11 2014, MaxMem=   33554432 cpu:       0.0
 (Enter /users/humeniuka/software/qc/gaussian-09.A02/g09/l601.exe)
 Copying SCF densities to generalized density rwf, IOpCl= 0 IROHF=0.

 **********************************************************************

            Population analysis using the SCF density.

 **********************************************************************

 Orbital symmetries:
       Occupied  (SGG) (SGU) (PIU) (PIU) (SGG) (SGU) (PIG) (PIG)
       Virtual   (PIU) (PIU) (SGU) (SGG)
 The electronic state is 1-SGG.
 Alpha  occ. eigenvalues --   -1.17491  -0.80461  -0.54811  -0.54811  -0.51164
 Alpha  occ. eigenvalues --   -0.46954  -0.34474  -0.34474
 Alpha virt. eigenvalues --   -0.03174  -0.03174   0.01657   0.03689
          Condensed to atoms (all electrons):
              1          2          3
     1  S    5.728360   0.000000   0.000000
     2  C    0.000000   4.543281   0.000000
     3  S    0.000000   0.000000   5.728360
 Mulliken atomic charges:
              1
     1  S    0.271640
     2  C   -0.543281
     3  S    0.271640
 Sum of Mulliken atomic charges =   0.00000
 Mulliken charges with hydrogens summed into heavy atoms:
              1
     1  S    0.271640
     2  C   -0.543281
     3  S    0.271640
 Sum of Mulliken charges with hydrogens summed into heavy atoms =   0.00000
 Charge=              0.0000 electrons
 Dipole moment (field-independent basis, Debye):
    X=              0.0000    Y=              0.0000    Z=              0.0000  Tot=              0.0000
 N-N= 3.910135434864D+01 E-N=-3.804823540983D+01  KE=-3.060599198871D+01
 Leave Link  601 at Mon Dec 22 20:42:11 2014, MaxMem=   33554432 cpu:       0.0
 (Enter /users/humeniuka/software/qc/gaussian-09.A02/g09/l9999.exe)
 1\1\GINC-FUX11\FOpt\RAM1\ZDO\C1S2\HUMENIUKA\22-Dec-2014\0\\#P AM1 Opt 
 Freq\\cs2\\0,1\S,1.4587129698,0.,0.\C,0.,0.,0.\S,-1.4587129698,0.,0.\\
 Version=EM64L-G09RevA.02\State=1-SGG\HF=0.0278282\RMSD=5.945e-09\RMSF=
 6.680e-07\Dipole=0.,0.,0.\PG=D*H [O(C1),C*(S1.S1)]\\@


 THERE'S NOTHING WRONG WITH FOLLOWING A TRAIN OF THOUGHT...
 AS LONG AS IT ULTIMATELY PULLS INTO THE STATION.
 Leave Link 9999 at Mon Dec 22 20:42:11 2014, MaxMem=   33554432 cpu:       0.0
 Job cpu time:  0 days  0 hours  0 minutes  1.6 seconds.
 File lengths (MBytes):  RWF=     72 Int=      0 D2E=      0 Chk=      2 Scr=      2
 Normal termination of Gaussian 09 at Mon Dec 22 20:42:11 2014.
 (Enter /users/humeniuka/software/qc/gaussian-09.A02/g09/l1.exe)
 Link1:  Proceeding to internal job step number  2.
 -------------------------------------------------------------
 #P Geom=AllCheck Guess=TCheck SCRF=Check GenChk RAM1/ZDO Freq
 -------------------------------------------------------------
 1/10=4,29=7,30=1,38=1,40=1/1,3;
 2/12=2,40=1/2;
 3/5=2,14=-4,16=1,25=1,41=700000,70=2,71=2,116=1,135=40/1,2,3;
 4/5=101,35=1/1;
 5/5=2,35=1,98=1/2;
 8/6=4,10=90,11=11/1;
 11/6=1,8=1,9=11,15=111,16=1/1,2,10;
 10/6=1/2;
 6/7=2,8=2,9=2,10=2,18=1,28=1/1;
 7/8=1,10=1,25=1/1,2,3,16;
 1/10=4,30=1/3;
 99//99;
 Leave Link    1 at Mon Dec 22 20:42:11 2014, MaxMem=          0 cpu:       0.0
 (Enter /users/humeniuka/software/qc/gaussian-09.A02/g09/l101.exe)
 ---
 cs2
 ---
 Redundant internal coordinates taken from checkpoint file:
 /users/humeniuka/Gaussian2py-0.0.1/Gaussian2py/test_hessian/Gau-14447.chk
 Charge =  0 Multiplicity = 1
 S,0,1.4587129698,0.,0.
 C,0,0.,0.,0.
 S,0,-1.4587129698,0.,0.
 Recover connectivity data from disk.
                    Isotopes and Nuclear Properties:
 (Nuclear quadrupole moments (NQMom) in fm**2, nuclear magnetic moments (NMagM)
  in nuclear magnetons)

  Atom         1           2           3
 IAtWgt=          32          12          32
 AtmWgt=  31.9720718  12.0000000  31.9720718
 NucSpn=           0           0           0
 AtZEff=-192.0000000  -3.9000000-192.0000000
 NQMom=    0.0000000   0.0000000   0.0000000
 NMagM=    0.0000000   0.0000000   0.0000000
 Leave Link  101 at Mon Dec 22 20:42:11 2014, MaxMem=   33554432 cpu:       0.0
 (Enter /users/humeniuka/software/qc/gaussian-09.A02/g09/l103.exe)

 GradGradGradGradGradGradGradGradGradGradGradGradGradGradGradGradGradGrad
 Berny optimization.
 Initialization pass.
                           ----------------------------
                           !    Initial Parameters    !
                           ! (Angstroms and Degrees)  !
 --------------------------                            --------------------------
 ! Name  Definition              Value          Derivative Info.                !
 --------------------------------------------------------------------------------
 ! R1    R(1,2)                  1.4587         calculate D2E/DX2 analytically  !
 ! R2    R(2,3)                  1.4587         calculate D2E/DX2 analytically  !
 ! A1    L(1,2,3,-2,-1)        180.0            calculate D2E/DX2 analytically  !
 ! A2    L(1,2,3,-3,-2)        180.0            calculate D2E/DX2 analytically  !
 --------------------------------------------------------------------------------
 Trust Radius=3.00D-01 FncErr=1.00D-07 GrdErr=1.00D-07
 Number of steps in this run=   2 maximum allowed number of steps=   2.
 GradGradGradGradGradGradGradGradGradGradGradGradGradGradGradGradGradGrad

 Leave Link  103 at Mon Dec 22 20:42:11 2014, MaxMem=   33554432 cpu:       0.0
 (Enter /users/humeniuka/software/qc/gaussian-09.A02/g09/l202.exe)
                          Input orientation:                          
 ---------------------------------------------------------------------
 Center     Atomic      Atomic             Coordinates (Angstroms)
 Number     Number       Type             X           Y           Z
 ---------------------------------------------------------------------
      1         16           0        1.458713    0.000000    0.000000
      2          6           0        0.000000    0.000000    0.000000
      3         16           0       -1.458713    0.000000    0.000000
 ---------------------------------------------------------------------
                    Distance matrix (angstroms):
                    1          2          3
     1  S    0.000000
     2  C    1.458713   0.000000
     3  S    2.917426   1.458713   0.000000
 Stoichiometry    CS2
 Framework group  D*H[O(C),C*(S.S)]
 Deg. of freedom     1
 Full point group                 D*H     NOp   8
 Largest Abelian subgroup         D2H     NOp   8
 Largest concise Abelian subgroup C2      NOp   2
                         Standard orientation:                         
 ---------------------------------------------------------------------
 Center     Atomic      Atomic             Coordinates (Angstroms)
 Number     Number       Type             X           Y           Z
 ---------------------------------------------------------------------
      1         16           0        0.000000    0.000000    1.458713
      2          6           0        0.000000    0.000000    0.000000
      3         16           0        0.000000    0.000000   -1.458713
 ---------------------------------------------------------------------
 Rotational constants (GHZ):      0.0000000      3.7142979      3.7142979
 Leave Link  202 at Mon Dec 22 20:42:11 2014, MaxMem=   33554432 cpu:       0.0
 (Enter /users/humeniuka/software/qc/gaussian-09.A02/g09/l301.exe)
 Standard basis: VSTO-6G (5D, 7F)
 Ernie: Thresh=  0.10000D-02 Tol=  0.10000D-05 Strict=F.
  NNHCO=     0 NNPyr=     0 NCTC=     0               EPep=         0.000000000
    EC=        19.472789212  ECS=         0.662526708   EG=        -0.049878823
   EHC=         0.000000000  EAt=       -18.531956426  AtH=         0.483960825
 EPDDG=         0.000000000  ECC=        20.085437098 EAtT=        19.015917251
 There are     3 symmetry adapted basis functions of AG  symmetry.
 There are     0 symmetry adapted basis functions of B1G symmetry.
 There are     1 symmetry adapted basis functions of B2G symmetry.
 There are     1 symmetry adapted basis functions of B3G symmetry.
 There are     0 symmetry adapted basis functions of AU  symmetry.
 There are     3 symmetry adapted basis functions of B1U symmetry.
 There are     2 symmetry adapted basis functions of B2U symmetry.
 There are     2 symmetry adapted basis functions of B3U symmetry.
 Integral buffers will be    131072 words long.
 Regular integral format.
 Two-electron integral symmetry is turned off.
    12 basis functions,    72 primitive gaussians,    12 cartesian basis functions
     8 alpha electrons        8 beta electrons
       nuclear repulsion energy        39.1013543486 Hartrees.



 Warning!  S  atom    1 may be hypervalent but has no d functions.
 Warning!  S  atom    3 may be hypervalent but has no d functions.



 IExCor=    0 DFT=F Ex=HF Corr=None ExCW=0 ScaHFX=  1.000000
 ScaDFX=  1.000000  1.000000  1.000000  1.000000 ScalE2=  1.000000  1.000000
 IRadAn=      0 IRanWt=     -1 IRanGd=            0 ICorTp=0
 Leave Link  301 at Mon Dec 22 20:42:11 2014, MaxMem=   33554432 cpu:       0.0
 (Enter /users/humeniuka/software/qc/gaussian-09.A02/g09/l302.exe)
 Do NDO integrals.
 NPDir=0 NMtPBC=     1 NCelOv=     1 NCel=       1 NClECP=     1 NCelD=      1
         NCelK=      1 NCelE2=     1 NClLst=     1 CellRange=     0.0.
 One-electron integrals computed using PRISM.
 NBasis=    12 RedAO= F  NBF=     3     0     1     1     0     3     2     2
 NBsUse=    12 1.00D-04 NBFU=     3     0     1     1     0     3     2     2
 Leave Link  302 at Mon Dec 22 20:42:11 2014, MaxMem=   33554432 cpu:       0.1
 (Enter /users/humeniuka/software/qc/gaussian-09.A02/g09/l303.exe)
 DipDrv:  MaxL=1.
 Leave Link  303 at Mon Dec 22 20:42:11 2014, MaxMem=   33554432 cpu:       0.0
 (Enter /users/humeniuka/software/qc/gaussian-09.A02/g09/l401.exe)
[...]
 End of G2Drv Frequency-dependent properties file   722 does not exist.
 Leave Link 1110 at Mon Dec 22 20:42:12 2014, MaxMem=   33554432 cpu:       0.0
 (Enter /users/humeniuka/software/qc/gaussian-09.A02/g09/l1002.exe)
 Minotr:  Closed shell wavefunction.
          IDoAtm=111
          Direct CPHF calculation.
          Differentiating once with respect to electric field.
                with respect to dipole field.
          Differentiating once with respect to nuclear coordinates.
          Electric field/nuclear overlap derivatives assumed to be zero.
          Using symmetry in CPHF.
          Requested convergence is 1.0D-08 RMS, and 1.0D-07 maximum.
          NewPWx=T KeepS1=F KeepF1=F KeepIn=T MapXYZ=F SortEE=F KeepMc=T.
          MDV=      33495507 using IRadAn=       2.
          Keep J ints in memory in canonical form, NReq=801004.
 Symmetry not used in FoFDir.
 MinBra= 0 MaxBra= 1 Meth= 8.
 IRaf=       0 NMat=   1 IRICut=       1 DoRegI=T DoRafI=F ISym2E= 0 JSym2E=0.
          Solving linear equations separately, MaxMat=       0.
          There are     9 degrees of freedom in the 1st order CPHF.  IDoFFX=4.
 LinEq1:  Iter=  0 NonCon=     9 RMS=1.61D+00 Max=6.24D+00
 AX will form     9 AO Fock derivatives at one time.
 LinEq1:  Iter=  1 NonCon=     9 RMS=8.71D-02 Max=4.30D-01
 LinEq1:  Iter=  2 NonCon=     9 RMS=4.59D-03 Max=2.07D-02
 LinEq1:  Iter=  3 NonCon=     9 RMS=1.43D-04 Max=7.63D-04
 LinEq1:  Iter=  4 NonCon=     5 RMS=2.63D-06 Max=8.19D-06
 LinEq1:  Iter=  5 NonCon=     3 RMS=1.35D-07 Max=4.88D-07
 LinEq1:  Iter=  6 NonCon=     1 RMS=1.03D-08 Max=3.08D-08
 LinEq1:  Iter=  7 NonCon=     0 RMS=6.10D-10 Max=2.61D-09
 Linear equations converged to 1.000D-08 1.000D-07 after     7 iterations.
 FullF1:  Do perturbations    1 to     3.
 Isotropic polarizability for W=    0.000000       39.99 Bohr**3.
 End of Minotr Frequency-dependent properties file   721 does not exist.
 End of Minotr Frequency-dependent properties file   722 does not exist.
 Leave Link 1002 at Mon Dec 22 20:42:12 2014, MaxMem=   33554432 cpu:       0.0
 (Enter /users/humeniuka/software/qc/gaussian-09.A02/g09/l601.exe)
 Copying SCF densities to generalized density rwf, IOpCl= 0 IROHF=0.

 **********************************************************************

            Population analysis using the SCF density.

 **********************************************************************

 Orbital symmetries:
       Occupied  (SGG) (SGU) (PIU) (PIU) (SGG) (SGU) (PIG) (PIG)
       Virtual   (PIU) (PIU) (SGU) (SGG)
 The electronic state is 1-SGG.
 Alpha  occ. eigenvalues --   -1.17491  -0.80461  -0.54811  -0.54811  -0.51164
 Alpha  occ. eigenvalues --   -0.46954  -0.34474  -0.34474
 Alpha virt. eigenvalues --   -0.03174  -0.03174   0.01657   0.03689
          Condensed to atoms (all electrons):
              1          2          3
     1  S    5.728360   0.000000   0.000000
     2  C    0.000000   4.543281   0.000000
     3  S    0.000000   0.000000   5.728360
 Mulliken atomic charges:
              1
     1  S    0.271640
     2  C   -0.543281
     3  S    0.271640
 Sum of Mulliken atomic charges =   0.00000
 Mulliken charges with hydrogens summed into heavy atoms:
              1
     1  S    0.271640
     2  C   -0.543281
     3  S    0.271640
 Sum of Mulliken charges with hydrogens summed into heavy atoms =   0.00000
 APT atomic charges:
              1
     1  S   -0.698425
     2  C    1.396851
     3  S   -0.698425
 Sum of APT charges=   0.00000
 APT Atomic charges with hydrogens summed into heavy atoms:
              1
     1  S   -0.698425
     2  C    1.396851
     3  S   -0.698425
 Sum of APT charges=   0.00000
 Charge=              0.0000 electrons
 Dipole moment (field-independent basis, Debye):
    X=              0.0000    Y=              0.0000    Z=              0.0000  Tot=              0.0000
 N-N= 3.910135434864D+01 E-N=-3.804823540940D+01  KE=-3.060599198883D+01
  Exact polarizability:   6.961   0.000   6.961   0.000   0.000 106.063
 Approx polarizability:   4.689   0.000   4.689   0.000   0.000 107.817
 Leave Link  601 at Mon Dec 22 20:42:13 2014, MaxMem=   33554432 cpu:       0.0
 (Enter /users/humeniuka/software/qc/gaussian-09.A02/g09/l701.exe)
 Compute integral second derivatives.
 ... and contract with generalized density number  0.
 Leave Link  701 at Mon Dec 22 20:42:13 2014, MaxMem=   33554432 cpu:       0.0
 (Enter /users/humeniuka/software/qc/gaussian-09.A02/g09/l702.exe)
 L702 exits ... SP integral derivatives will be done elsewhere.
 Leave Link  702 at Mon Dec 22 20:42:13 2014, MaxMem=   33554432 cpu:       0.0
 (Enter /users/humeniuka/software/qc/gaussian-09.A02/g09/l703.exe)
 Compute integral second derivatives, UseDBF=F ICtDFT=           0.
 Integral derivatives from FoFDir, PRISM(SPDF).
 Calling FoFJK, ICntrl=    100127 FMM=F ISym2X=1 I1Cent= 0 IOpClX= 0 NMat=1 NMatS=1 NMatT=0.
 FoFCou: FMM=F IPFlag=           0 FMFlag=      100000 FMFlg1=         800
         NFxFlg=           0 DoJE=F BraDBF=F KetDBF=F FulRan=T
         Omega=  0.000000  0.000000  1.000000  0.000000  0.000000 ICntrl=  100127 IOpCl=  0
         NMat0=    1 NMatS0=    1 NMatT0=    0 NMatD0=    1 NMtDS0=    0 NMtDT0=    0
         I1Cent=           0 NGrid=           0.
 Symmetry not used in FoFCou.
 Leave Link  703 at Mon Dec 22 20:42:13 2014, MaxMem=   33554432 cpu:       0.0
 (Enter /users/humeniuka/software/qc/gaussian-09.A02/g09/l716.exe)
 Dipole        = 9.59614546D-16 4.41784501D-16 1.55431223D-14
 Polarizability= 6.96077225D+00 1.11081723D-18 6.96077225D+00
                -5.46179480D-15 2.74188141D-18 1.06062705D+02
 HyperPolar    =-5.63367254D-15-3.35236312D-17-1.92036310D-15
                -8.27444036D-18 3.22819234D-14-2.27850648D-16
                 1.86266161D-14-2.41085794D-14-2.46287361D-15
                 1.40064703D-12
 Full mass-weighted force constant matrix:
 Low frequencies ---   -0.0002   -0.0002    0.0000    0.4601    0.4601  481.3211
 Low frequencies ---  481.3211  681.0913 1367.4025
 Diagonal vibrational polarizability:
        0.0005901       0.0005901      24.5555250
 Harmonic frequencies (cm**-1), IR intensities (KM/Mole), Raman scattering
 activities (A**4/AMU), depolarization ratios for plane and unpolarized
 incident light, reduced masses (AMU), force constants (mDyne/A),
 and normal coordinates:
                     1                      2                      3
                    PIU                    PIU                    SGG
 Frequencies --   481.3211               481.3211               681.0913
 Red. masses --    13.3142                13.3142                31.9721
 Frc consts  --     1.8173                 1.8173                 8.7384
 IR Inten    --     0.0051                 0.0051                 0.0000
  Atom  AN      X      Y      Z        X      Y      Z        X      Y      Z
     1  16     0.00   0.18   0.00     0.18   0.00   0.00     0.00   0.00   0.71
     2   6    -0.01  -0.97   0.00    -0.97   0.01   0.00     0.00   0.00   0.00
     3  16     0.00   0.18   0.00     0.18   0.00   0.00     0.00   0.00  -0.71
                     4
                    SGU
 Frequencies --  1367.4025
 Red. masses --    13.3142
 Frc consts  --    14.6675
 IR Inten    --  1706.1172
  Atom  AN      X      Y      Z
     1  16     0.00   0.00  -0.18
     2   6     0.00   0.00   0.97
     3  16     0.00   0.00  -0.18

 -------------------
 - Thermochemistry -
 -------------------
 Temperature   298.150 Kelvin.  Pressure   1.00000 Atm.
 Atom     1 has atomic number 16 and mass  31.97207
 Atom     2 has atomic number  6 and mass  12.00000
 Atom     3 has atomic number 16 and mass  31.97207
 Molecular mass:    75.94414 amu.
 Principal axes and moments of inertia in atomic units:
                           1         2         3
     Eigenvalues --     0.00000 485.89027 485.89027
           X            0.00000   1.00000   0.00000
           Y            0.00000   0.00000   1.00000
           Z            1.00000   0.00000   0.00000
 This molecule is a prolate symmetric top.
 Rotational symmetry number  2.
 Warning -- assumption of classical behavior for rotation
           may cause significant error
 Rotational temperature (Kelvin)      0.17826
 Rotational constant (GHZ):           3.714298
 Zero-point vibrational energy      18010.6 (Joules/Mol)
                                    4.30464 (Kcal/Mol)
 Warning -- explicit consideration of   2 degrees of freedom as
           vibrations may cause significant error
 Vibrational temperatures:    692.51   692.51   979.94  1967.38
          (Kelvin)
 
 Zero-point correction=                           0.006860 (Hartree/Particle)
 Thermal correction to Energy=                    0.009826
 Thermal correction to Enthalpy=                  0.010770
 Thermal correction to Gibbs Free Energy=        -0.015847
 Sum of electronic and zero-point Energies=              0.034688
 Sum of electronic and thermal Energies=                 0.037654
 Sum of electronic and thermal Enthalpies=               0.038598
 Sum of electronic and thermal Free Energies=            0.011981
 
                     E (Thermal)             CV                S
                      KCal/Mol        Cal/Mol-Kelvin    Cal/Mol-Kelvin
 Total                    6.166              8.535             56.020
 Electronic               0.000              0.000              0.000
 Translational            0.889              2.981             38.898
 Rotational               0.592              1.987             15.359
 Vibrational              4.685              3.567              1.763
 Vibration     1          0.838              1.291              0.707
 Vibration     2          0.838              1.291              0.707
                       Q            Log10(Q)             Ln(Q)
 Total Bot       0.194521D+08          7.288967         16.783468
 Total V=0       0.278153D+11         10.444283         24.048851
 Vib (Bot)       0.894159D-03         -3.048585         -7.019626
 Vib (Bot)    1  0.347080D+00         -0.459570         -1.058199
 Vib (Bot)    2  0.347080D+00         -0.459570         -1.058199
 Vib (V=0)       0.127859D+01          0.106731          0.245756
 Vib (V=0)    1  0.110866D+01          0.044798          0.103150
 Vib (V=0)    2  0.110866D+01          0.044798          0.103150
 Electronic      0.100000D+01          0.000000          0.000000
 Translational   0.260134D+08          7.415197         17.074121
 Rotational      0.836288D+03          2.922356          6.728973
 
                                                                 cs2
                                                             IR Spectrum
 
     1                                                                                                                               
     3                                                               6                  4                                            
     6                                                               8                  8                                            
     7                                                               1                  1                                            
 
     X                                                                                                                               
     X                                                                                                                               
     X                                                                                                                               
     X                                                                                                                               
     X                                                                                                                               
     X                                                                                                                               
     X                                                                                                                               
     X                                                                                                                               
     X                                                                                                                               
     X                                                                                                                               
     X                                                                                                                               
     X                                                                                                                               
     X                                                                                                                               
     X                                                                                                                               
     X                                                                                                                               
     X                                                                                                                               
     X                                                                                                                               
     X                                                                                                                               
     X                                                                                                                               
     X                                                                                                                               
 
 ***** Axes restored to original set *****
 -------------------------------------------------------------------
 Center     Atomic                   Forces (Hartrees/Bohr)
 Number     Number              X              Y              Z
 -------------------------------------------------------------------
      1       16          -0.000001417    0.000000000    0.000000000
      2        6           0.000000000    0.000000000    0.000000000
      3       16           0.000001417    0.000000000    0.000000000
 -------------------------------------------------------------------
 Cartesian Forces:  Max     0.000001417 RMS     0.000000668
 Force constants in Cartesian coordinates: 
                1             2             3             4             5 
      1  0.459372D+00
      2  0.000000D+00  0.221458D-01
      3  0.000000D+00  0.000000D+00  0.221458D-01
      4 -0.357472D+00  0.000000D+00  0.000000D+00  0.714944D+00
      5  0.000000D+00 -0.442914D-01  0.000000D+00  0.000000D+00  0.885827D-01
      6  0.000000D+00  0.000000D+00 -0.442914D-01  0.000000D+00  0.000000D+00
      7 -0.101900D+00  0.000000D+00  0.000000D+00 -0.357472D+00  0.000000D+00
      8  0.000000D+00  0.221456D-01  0.000000D+00  0.000000D+00 -0.442914D-01
      9  0.000000D+00  0.000000D+00  0.221456D-01  0.000000D+00  0.000000D+00
                6             7             8             9 
      6  0.885827D-01
      7  0.000000D+00  0.459372D+00
      8  0.000000D+00  0.000000D+00  0.221458D-01
      9 -0.442914D-01  0.000000D+00  0.000000D+00  0.221458D-01
 Force constants in internal coordinates: 
                1             2             3             4 
      1  0.459372D+00
      2  0.101900D+00  0.459372D+00
      3  0.000000D+00  0.000000D+00  0.168276D+00
      4  0.000000D+00  0.000000D+00  0.000000D+00  0.168276D+00
 Leave Link  716 at Mon Dec 22 20:42:13 2014, MaxMem=   33554432 cpu:       0.0
 (Enter /users/humeniuka/software/qc/gaussian-09.A02/g09/l103.exe)

 GradGradGradGradGradGradGradGradGradGradGradGradGradGradGradGradGradGrad
 Berny optimization.
 Internal  Forces:  Max     0.000001417 RMS     0.000001002
 Search for a local minimum.
 Step number   1 out of a maximum of    2
 All quantities printed in internal units (Hartrees-Bohrs-Radians)
 Second derivative matrix not updated -- analytic derivatives used.
 The second derivative matrix:
                          R1        R2        A1        A2
           R1           0.45937
           R2           0.10190   0.45937
           A1           0.00000   0.00000   0.16828
           A2           0.00000   0.00000   0.00000   0.16828
     Eigenvalues ---    0.16828   0.16828   0.35747   0.56127
 Angle between quadratic step and forces=   0.00 degrees.
 Linear search not attempted -- first point.
 Iteration  1 RMS(Cart)=  0.00000179 RMS(Int)=  0.00000000
 Iteration  2 RMS(Cart)=  0.00000000 RMS(Int)=  0.00000000
 ClnCor:  largest displacement from symmetrization is 1.95D-15 for atom     2.
 Variable       Old X    -DE/DX   Delta X   Delta X   Delta X     New X
                                 (Linear)    (Quad)   (Total)
    R1        2.75657   0.00000   0.00000   0.00000   0.00000   2.75657
    R2        2.75657   0.00000   0.00000   0.00000   0.00000   2.75657
    A1        3.14159   0.00000   0.00000   0.00000   0.00000   3.14159
    A2        3.14159   0.00000   0.00000   0.00000   0.00000   3.14159
         Item               Value     Threshold  Converged?
 Maximum Force            0.000001     0.000450     YES
 RMS     Force            0.000001     0.000300     YES
 Maximum Displacement     0.000003     0.001800     YES
 RMS     Displacement     0.000002     0.001200     YES
 Predicted change in Energy=-3.577312D-12
 Optimization completed.
    -- Stationary point found.
                           ----------------------------
                           !   Optimized Parameters   !
                           ! (Angstroms and Degrees)  !
 --------------------------                            --------------------------
 ! Name  Definition              Value          Derivative Info.                !
 --------------------------------------------------------------------------------
 ! R1    R(1,2)                  1.4587         -DE/DX =    0.0                 !
 ! R2    R(2,3)                  1.4587         -DE/DX =    0.0                 !
 ! A1    L(1,2,3,-2,-1)        180.0            -DE/DX =    0.0                 !
 ! A2    L(1,2,3,-3,-2)        180.0            -DE/DX =    0.0                 !
 --------------------------------------------------------------------------------
 GradGradGradGradGradGradGradGradGradGradGradGradGradGradGradGradGradGrad

 Leave Link  103 at Mon Dec 22 20:42:13 2014, MaxMem=   33554432 cpu:       0.0
 (Enter /users/humeniuka/software/qc/gaussian-09.A02/g09/l9999.exe)
 1\1\GINC-FUX11\Freq\RAM1\ZDO\C1S2\HUMENIUKA\22-Dec-2014\0\\#P Geom=All
 Check Guess=TCheck SCRF=Check GenChk RAM1/ZDO Freq\\cs2\\0,1\S,1.45871
 29698,0.,0.\C,0.,0.,0.\S,-1.4587129698,0.,0.\\Version=EM64L-G09RevA.02
 \State=1-SGG\HF=0.0278282\RMSD=2.519e-10\RMSF=6.680e-07\ZeroPoint=0.00
 68599\Thermal=0.0098259\Dipole=0.,0.,0.\DipoleDeriv=-2.1025323,0.,0.,0
 .,0.0036291,0.,0.,0.,0.0036291,4.2050645,0.,0.,0.,-0.0072553,0.,0.,0.,
 -0.0072553,-2.1025323,0.,0.,0.,0.0036291,0.,0.,0.,0.0036291\Polar=106.
 0627054,0.,6.9607723,0.,0.,6.9607723\HyperPolar=0.,0.,0.,0.,0.,0.,0.,0
 .,0.,0.\PG=D*H [O(C1),C*(S1.S1)]\NImag=0\\0.45937167,0.,0.02214584,0.,
 0.,0.02214584,-0.35747191,0.,0.,0.71494384,0.,-0.04429139,0.,0.,0.0885
 8268,0.,0.,-0.04429139,0.,0.,0.08858268,-0.10189977,0.,0.,-0.35747191,
 0.,0.,0.45937167,0.,0.02214559,0.,0.,-0.04429139,0.,0.,0.02214584,0.,0
 .,0.02214559,0.,0.,-0.04429139,0.,0.,0.02214584\\0.00000142,0.,0.,0.,0
 .,0.,-0.00000142,0.,0.\\\@


 HE THAT IS UNAWARE OF HIS IGNORANCE WILL BE MISLED BY HIS KNOWLEDGE.

                                        -- WHATLEY
 Job cpu time:  0 days  0 hours  0 minutes  0.7 seconds.
 File lengths (MBytes):  RWF=    142 Int=      0 D2E=      0 Chk=      2 Scr=      2
 Normal termination of Gaussian 09 at Mon Dec 22 20:42:13 2014.
