Water - experimental geometry r(OH) = 0.958,angle(H-O-H) = 104.4776 degr
SP        RPBEPBE                                                     Aug-CC-pV5Z         
Number of atoms                            I                3
Info1-9                                    I   N=           9
          18          14           0           0           0         110
           1          18         902
Charge                                     I                0
Multiplicity                               I                1
Number of electrons                        I               10
Number of alpha electrons                  I                5
Number of beta electrons                   I                5
Number of basis functions                  I              287
Number of independent functions            I              287
Number of point charges in /Mol/           I                0
Number of translation vectors              I                0
Atomic numbers                             I   N=           3
           8           1           1
Nuclear charges                            R   N=           3
  8.00000000E+00  1.00000000E+00  1.00000000E+00
Current cartesian coordinates              R   N=           9
 -1.54074396E-33  1.23259516E-32  2.21722406E-01 -6.16297582E-33  1.43121423E+00
 -8.86889625E-01 -1.75273192E-16 -1.43121423E+00 -8.86889625E-01
Force Field                                I                0
Int Atom Types                             I   N=           3
           0           0           0
MM charges                                 R   N=           3
  0.00000000E+00  0.00000000E+00  0.00000000E+00
Integer atomic weights                     I   N=           3
          16           1           1
Real atomic weights                        R   N=           3
  1.59949146E+01  1.00782504E+00  1.00782504E+00
Atom fragment info                         I   N=           3
           0           0           0
Atom residue num                           I   N=           3
           0           0           0
Nuclear spins                              I   N=           3
           0           1           1
Nuclear ZEff                               R   N=           3
 -5.60000000E+00 -1.00000000E+00 -1.00000000E+00
Nuclear ZNuc                               R   N=           3
  8.00000000E+00  1.00000000E+00  1.00000000E+00
Nuclear QMom                               R   N=           3
  0.00000000E+00  0.00000000E+00  0.00000000E+00
Nuclear GFac                               R   N=           3
  0.00000000E+00  2.79284600E+00  2.79284600E+00
MicOpt                                     I   N=           3
          -1          -1          -1
Number of contracted shells                I               67
Number of primitive shells                 I               90
Pure/Cartesian d shells                    I                0
Pure/Cartesian f shells                    I                0
Highest angular momentum                   I                5
Largest degree of contraction              I                9
Shell types                                I   N=          67
           0           0           0           0           0           0
           0           1           1           1           1           1
           1          -2          -2          -2          -2          -2
          -3          -3          -3          -3          -4          -4
          -4          -5          -5           0           0           0
           0           0           0           1           1           1
           1           1          -2          -2          -2          -2
          -3          -3          -3          -4          -4           0
           0           0           0           0           0           1
           1           1           1           1          -2          -2
          -2          -2          -3          -3          -3          -4
          -4
Number of primitives per shell             I   N=          67
           9           7           1           1           1           1
           1           4           1           1           1           1
           1           1           1           1           1           1
           1           1           1           1           1           1
           1           1           1           4           1           1
           1           1           1           1           1           1
           1           1           1           1           1           1
           1           1           1           1           1           4
           1           1           1           1           1           1
           1           1           1           1           1           1
           1           1           1           1           1           1
           1
Shell to atom map                          I   N=          67
           1           1           1           1           1           1
           1           1           1           1           1           1
           1           1           1           1           1           1
           1           1           1           1           1           1
           1           1           1           2           2           2
           2           2           2           2           2           2
           2           2           2           2           2           2
           2           2           2           2           2           3
           3           3           3           3           3           3
           3           3           3           3           3           3
           3           3           3           3           3           3
           3
Primitive exponents                        R   N=          90
  1.64200000E+05  2.45900000E+04  5.59200000E+03  1.58200000E+03  5.16100000E+02
  1.87200000E+02  7.39300000E+01  3.12200000E+01  1.38100000E+01  1.58200000E+03
  5.16100000E+02  1.87200000E+02  7.39300000E+01  3.12200000E+01  1.38100000E+01
  6.25600000E+00  2.77600000E+00  1.13800000E+00  4.60000000E-01  1.82900000E-01
  6.55000000E-02  1.95500000E+02  4.61600000E+01  1.45800000E+01  5.29600000E+00
  2.09400000E+00  8.47100000E-01  3.36800000E-01  1.28500000E-01  4.46000000E-02
  5.87900000E+00  2.30700000E+00  9.05000000E-01  3.55000000E-01  1.31000000E-01
  4.01600000E+00  1.55400000E+00  6.01000000E-01  2.37000000E-01  3.35000000E+00
  1.18900000E+00  5.17000000E-01  2.31900000E+00  1.02400000E+00  4.02000000E+02
  6.02400000E+01  1.37300000E+01  3.90500000E+00  1.28300000E+00  4.65500000E-01
  1.81100000E-01  7.27900000E-02  2.07000000E-02  4.51600000E+00  1.71200000E+00
  6.49000000E-01  2.46000000E-01  7.44000000E-02  2.95000000E+00  1.20600000E+00
  4.93000000E-01  1.56000000E-01  2.50600000E+00  8.75000000E-01  2.74000000E-01
  2.35800000E+00  5.43000000E-01  4.02000000E+02  6.02400000E+01  1.37300000E+01
  3.90500000E+00  1.28300000E+00  4.65500000E-01  1.81100000E-01  7.27900000E-02
  2.07000000E-02  4.51600000E+00  1.71200000E+00  6.49000000E-01  2.46000000E-01
  7.44000000E-02  2.95000000E+00  1.20600000E+00  4.93000000E-01  1.56000000E-01
  2.50600000E+00  8.75000000E-01  2.74000000E-01  2.35800000E+00  5.43000000E-01
Contraction coefficients                   R   N=          90
  4.49112566E-05  3.61624169E-04  1.88339428E-03  7.88317089E-03  2.79922597E-02
  8.37142246E-02  2.06350654E-01  3.76897488E-01  4.14901402E-01 -4.28453395E-05
 -2.71439680E-04 -2.95026082E-03 -1.63349789E-02 -8.52526950E-02 -2.93974897E-01
 -6.54266624E-01  1.00000000E+00  1.00000000E+00  1.00000000E+00  1.00000000E+00
  1.00000000E+00  6.27445151E-03  5.04963483E-02  2.38934941E-01  7.88961016E-01
  1.00000000E+00  1.00000000E+00  1.00000000E+00  1.00000000E+00  1.00000000E+00
  1.00000000E+00  1.00000000E+00  1.00000000E+00  1.00000000E+00  1.00000000E+00
  1.00000000E+00  1.00000000E+00  1.00000000E+00  1.00000000E+00  1.00000000E+00
  1.00000000E+00  1.00000000E+00  1.00000000E+00  1.00000000E+00  5.08810428E-03
  3.94829597E-02  2.04271885E-01  8.18437075E-01  1.00000000E+00  1.00000000E+00
  1.00000000E+00  1.00000000E+00  1.00000000E+00  1.00000000E+00  1.00000000E+00
  1.00000000E+00  1.00000000E+00  1.00000000E+00  1.00000000E+00  1.00000000E+00
  1.00000000E+00  1.00000000E+00  1.00000000E+00  1.00000000E+00  1.00000000E+00
  1.00000000E+00  1.00000000E+00  5.08810428E-03  3.94829597E-02  2.04271885E-01
  8.18437075E-01  1.00000000E+00  1.00000000E+00  1.00000000E+00  1.00000000E+00
  1.00000000E+00  1.00000000E+00  1.00000000E+00  1.00000000E+00  1.00000000E+00
  1.00000000E+00  1.00000000E+00  1.00000000E+00  1.00000000E+00  1.00000000E+00
  1.00000000E+00  1.00000000E+00  1.00000000E+00  1.00000000E+00  1.00000000E+00
Coordinates of each shell                  R   N=         201
 -6.83234914E-34  6.83234914E-33  2.21722406E-01 -6.83234914E-34  6.83234914E-33
  2.21722406E-01 -6.83234914E-34  6.83234914E-33  2.21722406E-01 -6.83234914E-34
  6.83234914E-33  2.21722406E-01 -6.83234914E-34  6.83234914E-33  2.21722406E-01
 -6.83234914E-34  6.83234914E-33  2.21722406E-01 -6.83234914E-34  6.83234914E-33
  2.21722406E-01 -6.83234914E-34  6.83234914E-33  2.21722406E-01 -6.83234914E-34
  6.83234914E-33  2.21722406E-01 -6.83234914E-34  6.83234914E-33  2.21722406E-01
 -6.83234914E-34  6.83234914E-33  2.21722406E-01 -6.83234914E-34  6.83234914E-33
  2.21722406E-01 -6.83234914E-34  6.83234914E-33  2.21722406E-01 -6.83234914E-34
  6.83234914E-33  2.21722406E-01 -6.83234914E-34  6.83234914E-33  2.21722406E-01
 -6.83234914E-34  6.83234914E-33  2.21722406E-01 -6.83234914E-34  6.83234914E-33
  2.21722406E-01 -6.83234914E-34  6.83234914E-33  2.21722406E-01 -6.83234914E-34
  6.83234914E-33  2.21722406E-01 -6.83234914E-34  6.83234914E-33  2.21722406E-01
 -6.83234914E-34  6.83234914E-33  2.21722406E-01 -6.83234914E-34  6.83234914E-33
  2.21722406E-01 -6.83234914E-34  6.83234914E-33  2.21722406E-01 -6.83234914E-34
  6.83234914E-33  2.21722406E-01 -6.83234914E-34  6.83234914E-33  2.21722406E-01
 -6.83234914E-34  6.83234914E-33  2.21722406E-01 -6.83234914E-34  6.83234914E-33
  2.21722406E-01  0.00000000E+00  1.43121423E+00 -8.86889625E-01  0.00000000E+00
  1.43121423E+00 -8.86889625E-01  0.00000000E+00  1.43121423E+00 -8.86889625E-01
  0.00000000E+00  1.43121423E+00 -8.86889625E-01  0.00000000E+00  1.43121423E+00
 -8.86889625E-01  0.00000000E+00  1.43121423E+00 -8.86889625E-01  0.00000000E+00
  1.43121423E+00 -8.86889625E-01  0.00000000E+00  1.43121423E+00 -8.86889625E-01
  0.00000000E+00  1.43121423E+00 -8.86889625E-01  0.00000000E+00  1.43121423E+00
 -8.86889625E-01  0.00000000E+00  1.43121423E+00 -8.86889625E-01  0.00000000E+00
  1.43121423E+00 -8.86889625E-01  0.00000000E+00  1.43121423E+00 -8.86889625E-01
  0.00000000E+00  1.43121423E+00 -8.86889625E-01  0.00000000E+00  1.43121423E+00
 -8.86889625E-01  0.00000000E+00  1.43121423E+00 -8.86889625E-01  0.00000000E+00
  1.43121423E+00 -8.86889625E-01  0.00000000E+00  1.43121423E+00 -8.86889625E-01
  0.00000000E+00  1.43121423E+00 -8.86889625E-01  0.00000000E+00  1.43121423E+00
 -8.86889625E-01 -1.75273192E-16 -1.43121423E+00 -8.86889625E-01 -1.75273192E-16
 -1.43121423E+00 -8.86889625E-01 -1.75273192E-16 -1.43121423E+00 -8.86889625E-01
 -1.75273192E-16 -1.43121423E+00 -8.86889625E-01 -1.75273192E-16 -1.43121423E+00
 -8.86889625E-01 -1.75273192E-16 -1.43121423E+00 -8.86889625E-01 -1.75273192E-16
 -1.43121423E+00 -8.86889625E-01 -1.75273192E-16 -1.43121423E+00 -8.86889625E-01
 -1.75273192E-16 -1.43121423E+00 -8.86889625E-01 -1.75273192E-16 -1.43121423E+00
 -8.86889625E-01 -1.75273192E-16 -1.43121423E+00 -8.86889625E-01 -1.75273192E-16
 -1.43121423E+00 -8.86889625E-01 -1.75273192E-16 -1.43121423E+00 -8.86889625E-01
 -1.75273192E-16 -1.43121423E+00 -8.86889625E-01 -1.75273192E-16 -1.43121423E+00
 -8.86889625E-01 -1.75273192E-16 -1.43121423E+00 -8.86889625E-01 -1.75273192E-16
 -1.43121423E+00 -8.86889625E-01 -1.75273192E-16 -1.43121423E+00 -8.86889625E-01
 -1.75273192E-16 -1.43121423E+00 -8.86889625E-01 -1.75273192E-16 -1.43121423E+00
 -8.86889625E-01
Constraint Structure                       R   N=           9
 -6.83234914E-34  6.83234914E-33  2.21722406E-01  0.00000000E+00  1.43121423E+00
 -8.86889625E-01 -1.75273192E-16 -1.43121423E+00 -8.86889625E-01
Num ILSW                                   I              100
ILSW                                       I   N=         100
           0           0           0           0           2           0
           0           0           0           0        1009          -1
           5           0           0           0           0           0
           0           0           0           0           0           0
           1           0           0           0           0           0
           0           0      100000           0          -1           0
           0           0           0           0           0           0
           0           0           0           1           0           0
           0           0           1           0           0           0
           0           0           4          41           0           0
           0           0           0           0           0           0
           0           0           0           3           0           0
           0           0           0           0           0           0
           0           0           0           0           0           0
           0           0           0           0           0           0
           0           0           0           0           0           0
           0           0           0           0
Num RLSW                                   I               41
RLSW                                       R   N=          41
  1.00000000E+00  1.00000000E+00  1.00000000E+00  1.00000000E+00  0.00000000E+00
  0.00000000E+00  0.00000000E+00  1.00000000E+00  0.00000000E+00  0.00000000E+00
  0.00000000E+00  0.00000000E+00  1.00000000E+00  0.00000000E+00  0.00000000E+00
  0.00000000E+00  0.00000000E+00  1.00000000E+00  0.00000000E+00  0.00000000E+00
  0.00000000E+00  0.00000000E+00  1.00000000E+00  0.00000000E+00  0.00000000E+00
  0.00000000E+00  0.00000000E+00  1.00000000E+00  0.00000000E+00  0.00000000E+00
  0.00000000E+00  0.00000000E+00  1.00000000E+00  0.00000000E+00  0.00000000E+00
  0.00000000E+00  0.00000000E+00  0.00000000E+00  1.00000000E+00  1.00000000E+00
  0.00000000E+00
MxBond                                     I                2
NBond                                      I   N=           3
           2           1           1
IBond                                      I   N=           6
           2           3           1           0           1           0
RBond                                      R   N=           6
  1.00000000E+00  1.00000000E+00  1.00000000E+00  0.00000000E+00  1.00000000E+00
  0.00000000E+00
Virial Ratio                               R      2.003230027408571E+00
SCF Energy                                 R     -7.638804330461275E+01
Total Energy                               R     -7.638804330461275E+01
RMS Density                                R      3.740362570570559E-09
External E-field                           R   N=          35
  0.00000000E+00  0.00000000E+00  0.00000000E+00  0.00000000E+00  0.00000000E+00
  0.00000000E+00  0.00000000E+00  0.00000000E+00  0.00000000E+00  0.00000000E+00
  0.00000000E+00  0.00000000E+00  0.00000000E+00  0.00000000E+00  0.00000000E+00
  0.00000000E+00  0.00000000E+00  0.00000000E+00  0.00000000E+00  0.00000000E+00
  0.00000000E+00  0.00000000E+00  0.00000000E+00  0.00000000E+00  0.00000000E+00
  0.00000000E+00  0.00000000E+00  0.00000000E+00  0.00000000E+00  0.00000000E+00
  0.00000000E+00  0.00000000E+00  0.00000000E+00  0.00000000E+00  0.00000000E+00
IOpCl                                      I                0
IROHF                                      I                0
Alpha Orbital Energies                     R   N=         287
 -1.87543671E+01 -9.31972029E-01 -4.85203146E-01 -3.43238302E-01 -2.66507512E-01
 -3.42735328E-02  1.46194380E-02  4.88876030E-02  5.78538849E-02  6.59031038E-02
  7.85741135E-02  1.05540895E-01  1.19103341E-01  1.28839941E-01  1.40173225E-01
  1.50613472E-01  2.12035173E-01  2.13995689E-01  2.32696623E-01  2.83453771E-01
  2.99708863E-01  3.49388215E-01  3.52734761E-01  3.66742917E-01  3.69734494E-01
  3.80673340E-01  4.15866961E-01  4.17784275E-01  4.27146124E-01  4.35121847E-01
  4.40163657E-01  4.91528250E-01  5.09245322E-01  5.35428133E-01  5.39446313E-01
  5.54880586E-01  5.77391518E-01  5.84349368E-01  6.18267640E-01  7.63723920E-01
  8.12483516E-01  8.56712674E-01  8.58735106E-01  9.15107253E-01  9.44696924E-01
  9.64994051E-01  9.83101801E-01  9.92134148E-01  1.03342270E+00  1.03437850E+00
  1.04409821E+00  1.06842416E+00  1.08353743E+00  1.08938298E+00  1.12043164E+00
  1.13563866E+00  1.13961883E+00  1.15861983E+00  1.18917647E+00  1.19440736E+00
  1.25468177E+00  1.26083330E+00  1.26825449E+00  1.27795097E+00  1.29651493E+00
  1.32399595E+00  1.33883147E+00  1.34393130E+00  1.35025890E+00  1.45936695E+00
  1.53139421E+00  1.54212527E+00  1.58884619E+00  1.64215676E+00  1.71900252E+00
  1.88157067E+00  2.00868849E+00  2.03723966E+00  2.03776924E+00  2.04738949E+00
  2.15360772E+00  2.20360542E+00  2.28189142E+00  2.35887364E+00  2.38772870E+00
  2.39210590E+00  2.40615109E+00  2.48785909E+00  2.49424139E+00  2.54336428E+00
  2.54623286E+00  2.58233296E+00  2.61448249E+00  2.63284737E+00  2.67986522E+00
  2.71652876E+00  2.73526961E+00  2.74191715E+00  2.78679489E+00  2.81032368E+00
  2.83661900E+00  2.90839543E+00  2.91217510E+00  2.91629177E+00  2.91994932E+00
  2.98421850E+00  3.00030192E+00  3.06628423E+00  3.08473377E+00  3.09245834E+00
  3.09643570E+00  3.11461923E+00  3.19943256E+00  3.21011571E+00  3.25058366E+00
  3.32147279E+00  3.33045437E+00  3.39761875E+00  3.40897593E+00  3.44821207E+00
  3.47812926E+00  3.52293243E+00  3.59978102E+00  3.67934094E+00  3.72148071E+00
  3.72181126E+00  3.74704363E+00  3.93187623E+00  3.96716155E+00  4.13830903E+00
  4.16152068E+00  4.19526048E+00  4.30424642E+00  4.32518540E+00  4.43606727E+00
  4.60992706E+00  4.65622451E+00  4.68995300E+00  4.76381236E+00  4.79088575E+00
  5.16665716E+00  5.18031730E+00  5.34704522E+00  5.35985160E+00  5.37929478E+00
  5.40273375E+00  5.41822826E+00  5.57104455E+00  5.63768556E+00  5.67761624E+00
  5.75676423E+00  5.75782415E+00  5.77845569E+00  5.85163910E+00  5.85174947E+00
  5.85313050E+00  5.93336773E+00  6.09354192E+00  6.20090974E+00  6.22680967E+00
  6.43458403E+00  6.44251582E+00  6.48433885E+00  6.60686857E+00  6.65172941E+00
  6.66326510E+00  6.73091682E+00  6.77363545E+00  6.77633527E+00  6.80797828E+00
  6.85584204E+00  7.07308995E+00  7.18207411E+00  7.26581255E+00  7.28373282E+00
  7.39303223E+00  7.39489109E+00  7.42180584E+00  7.56687188E+00  7.65169970E+00
  7.84950925E+00  7.89568161E+00  7.91911082E+00  8.01355105E+00  8.41935564E+00
  8.45497261E+00  8.55374805E+00  8.55551504E+00  8.65852490E+00  8.66792535E+00
  8.78465419E+00  8.89301679E+00  9.22876406E+00  9.48628138E+00  9.59472522E+00
  9.81548362E+00  9.94312424E+00  1.04310824E+01  1.04453404E+01  1.04682105E+01
  1.25444127E+01  1.26272530E+01  1.26341013E+01  1.26794319E+01  1.27155142E+01
  1.27992734E+01  1.28935537E+01  1.29115579E+01  1.30650528E+01  1.31424227E+01
  1.32307219E+01  1.32397424E+01  1.32654905E+01  1.35085686E+01  1.35481903E+01
  1.36579790E+01  1.36696345E+01  1.36912310E+01  1.37172561E+01  1.37460418E+01
  1.38637859E+01  1.39396440E+01  1.39633298E+01  1.40600039E+01  1.40974356E+01
  1.41057689E+01  1.41405549E+01  1.42042834E+01  1.43548162E+01  1.44152217E+01
  1.45380177E+01  1.46254204E+01  1.48205400E+01  1.50166221E+01  1.50486488E+01
  1.53598404E+01  1.53932985E+01  1.55688131E+01  1.56006840E+01  1.60026921E+01
  1.60602573E+01  1.61624467E+01  1.62350816E+01  1.64444254E+01  1.64633427E+01
  1.64714242E+01  1.65509952E+01  1.67868388E+01  1.69546944E+01  1.70441389E+01
  1.71959624E+01  1.73834654E+01  1.73912035E+01  1.74947264E+01  1.75697950E+01
  1.75850051E+01  1.77731921E+01  1.80476398E+01  1.83209414E+01  1.84231545E+01
  1.84337700E+01  1.86806882E+01  1.87372265E+01  1.88621606E+01  1.90823299E+01
  1.92643196E+01  1.93978287E+01  1.94659248E+01  1.94995240E+01  1.98089579E+01
  1.98357507E+01  2.00955271E+01  2.02791149E+01  2.11312416E+01  2.13395781E+01
  2.22898962E+01  2.24861747E+01  2.27032133E+01  2.32658769E+01  2.34635947E+01
  2.34962143E+01  2.36233858E+01  2.49855187E+01  2.54711951E+01  2.60908509E+01
  2.63006584E+01  6.55155672E+01
Alpha MO coefficients                      R   N=       82369
  5.73165518E-01 -4.13073696E-01  8.96768272E-02 -2.14953280E-02 -3.04194232E-02
 -9.79974961E-04 -7.21746700E-04  0.00000000E+00  0.00000000E+00 -1.22717431E-03
  0.00000000E+00  0.00000000E+00 -7.97972129E-04  0.00000000E+00  0.00000000E+00
  1.36866397E-02  0.00000000E+00  0.00000000E+00 -2.22837094E-03  0.00000000E+00
  0.00000000E+00 -2.41158122E-03  0.00000000E+00  0.00000000E+00 -1.04532007E-04
  5.21442837E-05  0.00000000E+00  0.00000000E+00 -3.31165373E-04  0.00000000E+00
 -1.28179134E-04  0.00000000E+00  0.00000000E+00  6.16174889E-04  0.00000000E+00
 -1.66841645E-04  0.00000000E+00  0.00000000E+00  4.33384936E-03  0.00000000E+00
  4.18764214E-04  0.00000000E+00  0.00000000E+00 -2.24806201E-03  0.00000000E+00
 -1.74689156E-04  0.00000000E+00  0.00000000E+00 -1.03689159E-03  0.00000000E+00
  7.67500668E-05  0.00000000E+00  0.00000000E+00  1.62926590E-04  0.00000000E+00
  0.00000000E+00  0.00000000E+00 -8.07887852E-04  0.00000000E+00  0.00000000E+00
 -1.69853422E-03  0.00000000E+00  0.00000000E+00  0.00000000E+00  1.07542254E-03
  0.00000000E+00  0.00000000E+00  1.57755601E-03  0.00000000E+00  0.00000000E+00
  0.00000000E+00  5.92262514E-04  0.00000000E+00  0.00000000E+00  9.98179665E-04
  0.00000000E+00  0.00000000E+00  0.00000000E+00  1.21669619E-04  0.00000000E+00
  0.00000000E+00  1.46692011E-04  0.00000000E+00  0.00000000E+00  0.00000000E+00
 -6.32329312E-05  0.00000000E+00 -8.10885690E-05  0.00000000E+00  0.00000000E+00
 -1.15838634E-05  0.00000000E+00  0.00000000E+00  0.00000000E+00 -1.53463601E-04
  0.00000000E+00 -7.37269395E-04  0.00000000E+00  0.00000000E+00 -8.70160823E-04
  0.00000000E+00  0.00000000E+00  0.00000000E+00  1.12606858E-04  0.00000000E+00
 -2.54611213E-05  0.00000000E+00  0.00000000E+00 -8.76394922E-06  0.00000000E+00
  0.00000000E+00  0.00000000E+00  9.72109091E-05  0.00000000E+00  0.00000000E+00
  0.00000000E+00  1.02649012E-04  0.00000000E+00  0.00000000E+00  5.73646547E-05
  0.00000000E+00  0.00000000E+00  0.00000000E+00 -8.40057498E-05  0.00000000E+00
  0.00000000E+00  0.00000000E+00 -1.25330645E-04 -3.77437701E-03  1.14595778E-02
  3.30682277E-03  1.27542241E-03  3.20035754E-05  0.00000000E+00  1.53818394E-04
 -1.14621544E-04  0.00000000E+00  3.26251164E-04 -2.67526669E-04  0.00000000E+00
 -8.90615237E-03  7.49515035E-03  0.00000000E+00 -5.59352909E-03  4.35360119E-03
  0.00000000E+00 -8.78407300E-04  7.81929323E-04 -3.13953162E-05  0.00000000E+00
  2.31802084E-04  1.85899585E-04  0.00000000E+00  3.72066400E-04  0.00000000E+00
 -2.77835083E-03 -1.89740847E-03  0.00000000E+00  9.02139172E-04  0.00000000E+00
 -4.84244990E-03 -3.34635719E-03  0.00000000E+00  2.86241694E-04  0.00000000E+00
 -1.43124823E-03 -6.95047173E-04  0.00000000E+00 -1.27229694E-04  0.00000000E+00
 -1.73529178E-04 -2.60294790E-04  0.00000000E+00  0.00000000E+00  1.22196908E-04
 -5.20366930E-04  0.00000000E+00 -1.03506130E-03 -1.70393170E-03  0.00000000E+00
  0.00000000E+00  1.05233473E-03 -2.78417544E-04  0.00000000E+00 -5.09944894E-04
 -7.96094653E-04  0.00000000E+00  0.00000000E+00  3.09393926E-04 -1.02115025E-04
  0.00000000E+00  5.13437864E-06 -1.61966713E-04  0.00000000E+00  0.00000000E+00
  1.75644978E-04  8.74316504E-05  0.00000000E+00 -1.51223595E-04  0.00000000E+00
  2.47503738E-05 -2.74330321E-04  0.00000000E+00  0.00000000E+00  3.70565882E-04
  1.62579155E-04  0.00000000E+00 -1.25330645E-04 -3.77437701E-03  1.14595778E-02
  3.30682277E-03  1.27542241E-03  3.20035754E-05  0.00000000E+00 -1.53818394E-04
 -1.14621544E-04  0.00000000E+00 -3.26251164E-04 -2.67526669E-04  0.00000000E+00
  8.90615237E-03  7.49515035E-03  0.00000000E+00  5.59352909E-03  4.35360119E-03
  0.00000000E+00  8.78407300E-04  7.81929323E-04 -3.13953162E-05  0.00000000E+00
 -2.31802084E-04  1.85899585E-04  0.00000000E+00  3.72066400E-04  0.00000000E+00
  2.77835083E-03 -1.89740847E-03  0.00000000E+00  9.02139172E-04  0.00000000E+00
  4.84244990E-03 -3.34635719E-03  0.00000000E+00  2.86241694E-04  0.00000000E+00
  1.43124823E-03 -6.95047173E-04  0.00000000E+00 -1.27229694E-04  0.00000000E+00
  1.73529178E-04 -2.60294790E-04  0.00000000E+00  0.00000000E+00 -1.22196908E-04
 -5.20366930E-04  0.00000000E+00  1.03506130E-03 -1.70393170E-03  0.00000000E+00
  0.00000000E+00 -1.05233473E-03 -2.78417544E-04  0.00000000E+00  5.09944894E-04
 -7.96094653E-04  0.00000000E+00  0.00000000E+00 -3.09393926E-04 -1.02115025E-04
  0.00000000E+00 -5.13437864E-06 -1.61966713E-04  0.00000000E+00  0.00000000E+00
 -1.75644978E-04  8.74316504E-05  0.00000000E+00 -1.51223595E-04  0.00000000E+00
 -2.47503738E-05 -2.74330321E-04  0.00000000E+00  0.00000000E+00 -3.70565882E-04
  1.62579155E-04  0.00000000E+00 -1.19487655E-01  1.95205151E-01  5.16436330E-03
  3.26359000E-01  4.45536383E-01  2.13958925E-01  3.12617089E-02  0.00000000E+00
  0.00000000E+00 -2.71519949E-02  0.00000000E+00  0.00000000E+00 -4.35629377E-02
  0.00000000E+00  0.00000000E+00 -7.43039537E-02  0.00000000E+00  0.00000000E+00
 -6.79826592E-02  0.00000000E+00  0.00000000E+00 -2.40378151E-02  0.00000000E+00
  0.00000000E+00 -1.71430840E-03  2.07878939E-04  0.00000000E+00  0.00000000E+00
 -3.14028091E-04  0.00000000E+00  6.76156339E-04  0.00000000E+00  0.00000000E+00
 -2.29716616E-03  0.00000000E+00  4.56258523E-03  0.00000000E+00  0.00000000E+00
 -1.18269654E-02  0.00000000E+00  3.89055905E-03  0.00000000E+00  0.00000000E+00
 -1.36903437E-02  0.00000000E+00  1.11908722E-03  0.00000000E+00  0.00000000E+00
 -4.24396746E-03  0.00000000E+00  2.40897178E-05  0.00000000E+00  0.00000000E+00
 -5.60089024E-06  0.00000000E+00  0.00000000E+00  0.00000000E+00  8.36099320E-04
  0.00000000E+00  0.00000000E+00  2.76618767E-03  0.00000000E+00  0.00000000E+00
  0.00000000E+00  2.80280311E-03  0.00000000E+00  0.00000000E+00  7.18289510E-03
  0.00000000E+00  0.00000000E+00  0.00000000E+00  9.98391380E-04  0.00000000E+00
  0.00000000E+00  2.49149018E-03  0.00000000E+00  0.00000000E+00  0.00000000E+00
 -8.83222769E-05  0.00000000E+00  0.00000000E+00 -1.30141892E-04  0.00000000E+00
  0.00000000E+00  0.00000000E+00  7.47127353E-05  0.00000000E+00 -9.49313276E-04
  0.00000000E+00  0.00000000E+00 -1.46723846E-03  0.00000000E+00  0.00000000E+00
  0.00000000E+00  4.08516981E-04  0.00000000E+00 -8.98891557E-04  0.00000000E+00
  0.00000000E+00 -1.28250355E-03  0.00000000E+00  0.00000000E+00  0.00000000E+00
  4.49481280E-04  0.00000000E+00  9.82117622E-05  0.00000000E+00  0.00000000E+00
  9.89554149E-05  0.00000000E+00  0.00000000E+00  0.00000000E+00 -1.58192671E-04
  0.00000000E+00  0.00000000E+00  0.00000000E+00  1.94714830E-04  0.00000000E+00
  0.00000000E+00  2.13835246E-04  0.00000000E+00  0.00000000E+00  0.00000000E+00
 -1.75300253E-04  0.00000000E+00  0.00000000E+00  0.00000000E+00  2.43099225E-02
  5.40265637E-02  4.62845798E-02 -3.11746265E-03 -1.12938119E-02 -4.12745629E-04
  0.00000000E+00 -1.53689724E-03  9.88031578E-04  0.00000000E+00 -4.33359503E-03
  2.82481177E-03  0.00000000E+00 -2.49771061E-03  1.01569428E-03  0.00000000E+00
  1.34350525E-03 -1.43688993E-03  0.00000000E+00  1.24078561E-03 -8.50290962E-04
 -4.68803221E-05  0.00000000E+00 -5.13217839E-04 -4.03652930E-04  0.00000000E+00
  2.89179365E-04  0.00000000E+00 -5.09153718E-05 -1.24327475E-04  0.00000000E+00
  3.14967737E-04  0.00000000E+00 -4.48278364E-04 -4.64728256E-04  0.00000000E+00
  6.23319149E-05  0.00000000E+00 -9.01844021E-04 -7.67413426E-04  0.00000000E+00
  1.42594189E-05  0.00000000E+00 -1.57057015E-05 -4.00520518E-06  0.00000000E+00
  0.00000000E+00  2.66860032E-05  2.58861242E-04  0.00000000E+00 -2.35237308E-04
  2.41459902E-05  0.00000000E+00  0.00000000E+00  7.00595622E-07 -4.88681330E-07
  0.00000000E+00 -1.29316578E-04 -1.16910648E-04  0.00000000E+00  0.00000000E+00
  1.58382477E-04 -1.55048380E-05  0.00000000E+00 -2.60870843E-05 -1.93250987E-05
  0.00000000E+00  0.00000000E+00  2.57037697E-05  2.87759195E-05  0.00000000E+00
  8.10378459E-05  0.00000000E+00 -1.80153548E-04  4.53561850E-05  0.00000000E+00
  0.00000000E+00 -1.22897677E-04 -4.19107140E-05  0.00000000E+00  2.43099225E-02
  5.40265637E-02  4.62845798E-02 -3.11746265E-03 -1.12938119E-02 -4.12745629E-04
  0.00000000E+00  1.53689724E-03  9.88031578E-04  0.00000000E+00  4.33359503E-03
  2.82481177E-03  0.00000000E+00  2.49771061E-03  1.01569428E-03  0.00000000E+00
 -1.34350525E-03 -1.43688993E-03  0.00000000E+00 -1.24078561E-03 -8.50290962E-04
 -4.68803221E-05  0.00000000E+00  5.13217839E-04 -4.03652930E-04  0.00000000E+00
  2.89179365E-04  0.00000000E+00  5.09153718E-05 -1.24327475E-04  0.00000000E+00
  3.14967737E-04  0.00000000E+00  4.48278364E-04 -4.64728256E-04  0.00000000E+00
  6.23319149E-05  0.00000000E+00  9.01844021E-04 -7.67413426E-04  0.00000000E+00
  1.42594189E-05  0.00000000E+00  1.57057015E-05 -4.00520518E-06  0.00000000E+00
  0.00000000E+00 -2.66860032E-05  2.58861242E-04  0.00000000E+00  2.35237308E-04
  2.41459902E-05  0.00000000E+00  0.00000000E+00 -7.00595622E-07 -4.88681330E-07
  0.00000000E+00  1.29316578E-04 -1.16910648E-04  0.00000000E+00  0.00000000E+00
 -1.58382477E-04 -1.55048380E-05  0.00000000E+00  2.60870843E-05 -1.93250987E-05
  0.00000000E+00  0.00000000E+00 -2.57037697E-05  2.87759195E-05  0.00000000E+00
  8.10378459E-05  0.00000000E+00  1.80153548E-04  4.53561850E-05  0.00000000E+00
  0.00000000E+00  1.22897677E-04 -4.19107140E-05  0.00000000E+00  0.00000000E+00