Water - uncontracted 6-31G*                                             
SP        RHF                                                         Gen                 
Number of atoms                            I                3
Info1-9                                    I   N=           9
          17          13           0           0           0         110
           1           1           2
Charge                                     I                0
Multiplicity                               I                1
Number of electrons                        I               10
Number of alpha electrons                  I                5
Number of beta electrons                   I                5
Number of basis functions                  I               27
Number of independent functions            I               27
Number of point charges in /Mol/           I                0
Number of translation vectors              I                0
Atomic numbers                             I   N=           3
           1           8           1
Nuclear charges                            R   N=           3
  1.00000000E+00  8.00000000E+00  1.00000000E+00
Current cartesian coordinates              R   N=           9
 -8.62816615E-32  1.44140902E+00 -9.22313191E-01  0.00000000E+00  1.23259516E-32
  2.30578298E-01 -1.76521694E-16 -1.44140902E+00 -9.22313191E-01
Force Field                                I                0
Int Atom Types                             I   N=           3
           0           0           0
MM charges                                 R   N=           3
  0.00000000E+00  0.00000000E+00  0.00000000E+00
Integer atomic weights                     I   N=           3
           1          16           1
Real atomic weights                        R   N=           3
  1.00782504E+00  1.59949146E+01  1.00782504E+00
Atom fragment info                         I   N=           3
           0           0           0
Atom residue num                           I   N=           3
           0           0           0
Nuclear spins                              I   N=           3
           1           0           1
Nuclear ZEff                               R   N=           3
 -1.00000000E+00 -5.60000000E+00 -1.00000000E+00
Nuclear QMom                               R   N=           3
  0.00000000E+00  0.00000000E+00  0.00000000E+00
Nuclear GFac                               R   N=           3
  2.79284600E+00  0.00000000E+00  2.79284600E+00
MicOpt                                     I   N=           3
          -1          -1          -1
Number of contracted shells                I               19
Number of primitive shells                 I               19
Pure/Cartesian d shells                    I                0
Pure/Cartesian f shells                    I                0
Highest angular momentum                   I                1
Largest degree of contraction              I                1
Shell types                                I   N=          19
           0           0           0           0           0           0
           0           0           0           0           0           1
           1           1           1           0           0           0
           0
Number of primitives per shell             I   N=          19
           1           1           1           1           1           1
           1           1           1           1           1           1
           1           1           1           1           1           1
           1
Shell to atom map                          I   N=          19
           1           1           1           1           2           2
           2           2           2           2           2           2
           2           2           2           3           3           3
           3
Primitive exponents                        R   N=          19
  1.30107010E+01  1.96225720E+00  4.44537960E-01  1.21949620E-01  2.26617678E+03
  3.40870102E+02  7.73631352E+01  2.14796449E+01  6.65894331E+00  8.09759760E-01
  2.55307720E-01  1.77215043E+01  3.86355054E+00  1.04809209E+00  2.76415440E-01
  1.30107010E+01  1.96225720E+00  4.44537960E-01  1.21949620E-01
Contraction coefficients                   R   N=          19
  1.00000000E+00  1.00000000E+00  1.00000000E+00  1.00000000E+00  1.00000000E+00
  1.00000000E+00  1.00000000E+00  1.00000000E+00  1.00000000E+00  1.00000000E+00
  1.00000000E+00  1.00000000E+00  1.00000000E+00  1.00000000E+00  1.00000000E+00
  1.00000000E+00  1.00000000E+00  1.00000000E+00  1.00000000E+00
Coordinates of each shell                  R   N=          57
  0.00000000E+00  1.44140902E+00 -9.22313191E-01  0.00000000E+00  1.44140902E+00
 -9.22313191E-01  0.00000000E+00  1.44140902E+00 -9.22313191E-01  0.00000000E+00
  1.44140902E+00 -9.22313191E-01 -7.10524237E-34  7.10524237E-33  2.30578298E-01
 -7.10524237E-34  7.10524237E-33  2.30578298E-01 -7.10524237E-34  7.10524237E-33
  2.30578298E-01 -7.10524237E-34  7.10524237E-33  2.30578298E-01 -7.10524237E-34
  7.10524237E-33  2.30578298E-01 -7.10524237E-34  7.10524237E-33  2.30578298E-01
 -7.10524237E-34  7.10524237E-33  2.30578298E-01 -7.10524237E-34  7.10524237E-33
  2.30578298E-01 -7.10524237E-34  7.10524237E-33  2.30578298E-01 -7.10524237E-34
  7.10524237E-33  2.30578298E-01 -7.10524237E-34  7.10524237E-33  2.30578298E-01
 -1.76521694E-16 -1.44140902E+00 -9.22313191E-01 -1.76521694E-16 -1.44140902E+00
 -9.22313191E-01 -1.76521694E-16 -1.44140902E+00 -9.22313191E-01 -1.76521694E-16
 -1.44140902E+00 -9.22313191E-01
Constraint Structure                       R   N=           9
  0.00000000E+00  1.44140902E+00 -9.22313191E-01 -7.10524237E-34  7.10524237E-33
  2.30578298E-01 -1.76521694E-16 -1.44140902E+00 -9.22313191E-01
Num ILSW                                   I              100
ILSW                                       I   N=         100
           0           0           0           0           2           0
           0           0           0           0           0          -1
           5           0           0           0           0           0
           0           0           0           0           0           0
           1           0           0           0           0           0
           0           0      100000           0          -1           0
           0           0           0           0           0           0
           0           0           0           1           0           0
           0           0           1           0           0           0
           0           0           4          40           0           0
           0           0           0           0           0           0
           0           0           0           0           0           0
           0           0           0           0           0           0
           0           0           0           0           0           0
           0           0           0           0           0           0
           0           0           0           0           0           0
           0           0           0           0
Num RLSW                                   I               40
RLSW                                       R   N=          40
  1.00000000E+00  1.00000000E+00  1.00000000E+00  1.00000000E+00  1.00000000E+00
  0.00000000E+00  0.00000000E+00  1.00000000E+00  0.00000000E+00  0.00000000E+00
  0.00000000E+00  0.00000000E+00  1.00000000E+00  0.00000000E+00  0.00000000E+00
  0.00000000E+00  0.00000000E+00  1.00000000E+00  0.00000000E+00  0.00000000E+00
  0.00000000E+00  0.00000000E+00  1.00000000E+00  0.00000000E+00  0.00000000E+00
  0.00000000E+00  0.00000000E+00  1.00000000E+00  0.00000000E+00  0.00000000E+00
  0.00000000E+00  0.00000000E+00  0.00000000E+00  0.00000000E+00  0.00000000E+00
  0.00000000E+00  0.00000000E+00  0.00000000E+00  1.00000000E+00  1.00000000E+00
MxBond                                     I                2
NBond                                      I   N=           3
           1           2           1
IBond                                      I   N=           6
           2           0           1           3           2           0
RBond                                      R   N=           6
  1.00000000E+00  0.00000000E+00  1.00000000E+00  1.00000000E+00  1.00000000E+00
  0.00000000E+00
Virial Ratio                               R      2.001398215362040E+00
SCF Energy                                 R     -7.596692934154666E+01
Total Energy                               R     -7.596692934154666E+01
RMS Density                                R      1.348906890413245E-09
External E-field                           R   N=          35
  0.00000000E+00  0.00000000E+00  0.00000000E+00  0.00000000E+00  0.00000000E+00
  0.00000000E+00  0.00000000E+00  0.00000000E+00  0.00000000E+00  0.00000000E+00
  0.00000000E+00  0.00000000E+00  0.00000000E+00  0.00000000E+00  0.00000000E+00
  0.00000000E+00  0.00000000E+00  0.00000000E+00  0.00000000E+00  0.00000000E+00
  0.00000000E+00  0.00000000E+00  0.00000000E+00  0.00000000E+00  0.00000000E+00
  0.00000000E+00  0.00000000E+00  0.00000000E+00  0.00000000E+00  0.00000000E+00
  0.00000000E+00  0.00000000E+00  0.00000000E+00  0.00000000E+00  0.00000000E+00
IOpCl                                      I                0
IROHF                                      I                0
Alpha Orbital Energies                     R   N=          27
 -2.05590219E+01 -1.34646100E+00 -6.92833017E-01 -5.59519043E-01 -4.99639862E-01
  1.60356872E-01  2.45446774E-01  6.44249099E-01  7.24528233E-01  1.12174478E+00
  1.14511591E+00  1.28427086E+00  1.32242603E+00  3.17156910E+00  3.27792006E+00
  6.12831965E+00  6.20825314E+00  6.29860644E+00  1.83783761E+01  2.21227513E+01
  2.21473557E+01  3.35531981E+01  3.35988886E+01  3.36567740E+01  1.19354131E+02
  6.23739341E+02  4.09029540E+03
Alpha MO coefficients                      R   N=         729
  2.05569603E-04 -5.62521011E-04  1.35715843E-03  2.85814616E-03  5.48141396E-03
  4.07193460E-02  1.82466481E-01  4.62483158E-01  4.39531932E-01  3.57182859E-02
 -1.77056867E-02  0.00000000E+00  0.00000000E+00 -1.02495086E-03  0.00000000E+00
  0.00000000E+00 -1.28659219E-03  0.00000000E+00  0.00000000E+00 -6.72910855E-04
  0.00000000E+00  0.00000000E+00  2.52162934E-03  2.05569603E-04 -5.62521011E-04
  1.35715843E-03  2.85814616E-03  7.38483303E-03  5.98752579E-02  8.50651174E-02
  7.47526037E-03 -1.08057201E-03 -8.52243673E-03 -3.74867405E-02 -1.27396559E-01
 -1.51832576E-01  5.98065070E-01  3.49721353E-01  0.00000000E+00  0.00000000E+00
 -6.29524413E-03  0.00000000E+00  0.00000000E+00 -2.69136147E-02  0.00000000E+00
  0.00000000E+00 -9.57073298E-02  0.00000000E+00  0.00000000E+00 -4.76334646E-02
  7.38483303E-03  5.98752579E-02  8.50651174E-02  7.47526037E-03  1.16752326E-02
  9.20318576E-02  2.35990768E-01  8.42881215E-02  0.00000000E+00  0.00000000E+00
  0.00000000E+00  0.00000000E+00  0.00000000E+00  0.00000000E+00  0.00000000E+00
  0.00000000E+00  3.14544190E-02  0.00000000E+00  0.00000000E+00  1.57685098E-01
  0.00000000E+00  0.00000000E+00  3.81898951E-01  0.00000000E+00  0.00000000E+00
  2.60447638E-01  0.00000000E+00 -1.16752326E-02 -9.20318576E-02 -2.35990768E-01
 -8.42881215E-02 -7.08353249E-03 -5.52623612E-02 -1.27733402E-01 -5.23427480E-02
 -3.89702577E-04 -3.13741562E-03 -1.34043521E-02 -4.82449469E-02 -5.28935293E-02
  2.31942428E-01  2.59518567E-01  0.00000000E+00  0.00000000E+00  3.46432329E-02
  0.00000000E+00  0.00000000E+00  1.81449164E-01  0.00000000E+00  0.00000000E+00
  3.98858293E-01  0.00000000E+00  0.00000000E+00  4.08033484E-01 -7.08353249E-03
 -5.52623612E-02 -1.27733402E-01 -5.23427480E-02  0.00000000E+00  0.00000000E+00
  0.00000000E+00  0.00000000E+00  0.00000000E+00  0.00000000E+00  0.00000000E+00
  0.00000000E+00  0.00000000E+00  0.00000000E+00  0.00000000E+00  4.04809541E-02
  0.00000000E+00  0.00000000E+00  2.14879072E-01  0.00000000E+00  0.00000000E+00
  4.66038585E-01  0.00000000E+00  0.00000000E+00  5.19564887E-01  0.00000000E+00
  0.00000000E+00  0.00000000E+00  0.00000000E+00  0.00000000E+00  0.00000000E+00
 -1.13293179E-03 -2.75347769E-02 -1.92740349E-02 -8.72561028E-01 -3.28234644E-04
 -2.71505174E-03 -1.10963157E-02 -4.25767032E-02 -4.07035831E-02  1.05415312E-01
  9.83829908E-01  0.00000000E+00  0.00000000E+00 -1.30453712E-02  0.00000000E+00
  0.00000000E+00 -7.05483846E-02  0.00000000E+00  0.00000000E+00 -1.51032904E-01
  0.00000000E+00  0.00000000E+00 -3.42354402E-01 -1.13293179E-03 -2.75347769E-02
 -1.92740349E-02 -8.72561028E-01  2.77078965E-05  2.63322869E-02 -3.86360124E-02
  1.42584729E+00  0.00000000E+00  0.00000000E+00  0.00000000E+00  0.00000000E+00
  0.00000000E+00  0.00000000E+00  0.00000000E+00  0.00000000E+00 -1.86465290E-02
  0.00000000E+00  0.00000000E+00 -1.09285923E-01  0.00000000E+00  0.00000000E+00
 -1.88048150E-01  0.00000000E+00  0.00000000E+00 -6.29843856E-01  0.00000000E+00
 -2.77078965E-05 -2.63322869E-02  3.86360124E-02 -1.42584729E+00  1.90544314E-02
  2.68198323E-02  1.21569849E+00 -7.11822454E-01  0.00000000E+00  0.00000000E+00
  0.00000000E+00  0.00000000E+00  0.00000000E+00  0.00000000E+00  0.00000000E+00
  0.00000000E+00 -1.57733441E-02  0.00000000E+00  0.00000000E+00 -8.50141623E-02
  0.00000000E+00  0.00000000E+00 -1.87709532E-01  0.00000000E+00  0.00000000E+00
 -8.73766584E-01  0.00000000E+00 -1.90544314E-02 -2.68198323E-02 -1.21569849E+00
  7.11822454E-01  2.11163090E-02  1.23462059E-02  1.42269012E+00 -5.41276842E-01
  3.35217716E-04  2.59823436E-03  1.18161893E-02  3.89530877E-02  5.29505474E-02
 -2.20207674E-01 -6.59032128E-01  0.00000000E+00  0.00000000E+00  1.56877036E-02
  0.00000000E+00  0.00000000E+00  7.92291399E-02  0.00000000E+00  0.00000000E+00
  2.08165763E-01  0.00000000E+00  0.00000000E+00  7.84735796E-01  2.11163090E-02
  1.23462059E-02  1.42269012E+00 -5.41276842E-01  0.00000000E+00  0.00000000E+00
  0.00000000E+00  0.00000000E+00  0.00000000E+00  0.00000000E+00  0.00000000E+00
  0.00000000E+00  0.00000000E+00  0.00000000E+00  0.00000000E+00 -4.87119881E-02
  0.00000000E+00  0.00000000E+00 -1.75213383E-01  0.00000000E+00  0.00000000E+00
 -8.78293116E-01  0.00000000E+00  0.00000000E+00  1.09929262E+00  0.00000000E+00
  0.00000000E+00  0.00000000E+00  0.00000000E+00  0.00000000E+00  0.00000000E+00
 -1.47215845E-03  1.96453470E-02  1.50012567E-01  1.93612438E-02  4.04681232E-04
  2.97128212E-03  1.47409230E-02  4.29024905E-02  7.49004124E-02 -5.60595108E-01
  3.61893855E-01  0.00000000E+00  0.00000000E+00 -4.51625407E-02  0.00000000E+00
  0.00000000E+00 -1.57112933E-01  0.00000000E+00  0.00000000E+00 -8.28587517E-01
  0.00000000E+00  0.00000000E+00  1.14810947E+00 -1.47215845E-03  1.96453470E-02
  1.50012567E-01  1.93612438E-02  6.27278990E-03 -1.72256917E-03 -1.17510844E-01
 -7.27583290E-01  0.00000000E+00  0.00000000E+00  0.00000000E+00  0.00000000E+00
  0.00000000E+00  0.00000000E+00  0.00000000E+00  0.00000000E+00 -4.96146401E-02
  0.00000000E+00  0.00000000E+00 -1.74422219E-01  0.00000000E+00  0.00000000E+00
 -9.48350701E-01  0.00000000E+00  0.00000000E+00  1.60456615E+00  0.00000000E+00
 -6.27278990E-03  1.72256917E-03  1.17510844E-01  7.27583290E-01  2.61129573E-03
  1.10285141E-02 -5.88377095E-01 -5.09557993E-01  1.00795653E-03  7.08447208E-03
  3.75497815E-02  9.78724193E-02  2.08491529E-01 -1.88910898E+00  3.01642131E+00
  0.00000000E+00  0.00000000E+00  1.61719143E-02  0.00000000E+00  0.00000000E+00
  5.90967029E-02  0.00000000E+00  0.00000000E+00  3.46000731E-01  0.00000000E+00
  0.00000000E+00 -1.04528500E+00  2.61129573E-03  1.10285141E-02 -5.88377095E-01
 -5.09557993E-01  5.62793920E-03 -1.05942537E+00  1.36327200E+00 -3.79710576E-01
 -4.21960684E-05 -8.00490967E-04 -2.39507730E-04 -1.83747670E-02  2.28520847E-02
 -1.63534924E-01 -2.81289944E-01  0.00000000E+00  0.00000000E+00 -9.58982653E-03
  0.00000000E+00  0.00000000E+00 -1.30787350E-01  0.00000000E+00  0.00000000E+00
  1.07885703E-01  0.00000000E+00  0.00000000E+00  2.96915455E-01  5.62793920E-03
 -1.05942537E+00  1.36327200E+00 -3.79710576E-01  6.42679168E-03 -1.07880859E+00
  1.33014830E+00 -6.14361512E-01  0.00000000E+00  0.00000000E+00  0.00000000E+00
  0.00000000E+00  0.00000000E+00  0.00000000E+00  0.00000000E+00  0.00000000E+00
  8.64030577E-03  0.00000000E+00  0.00000000E+00  1.42887947E-01  0.00000000E+00
  0.00000000E+00 -1.95476705E-01  0.00000000E+00  0.00000000E+00 -1.28157431E-01
  0.00000000E+00 -6.42679168E-03  1.07880859E+00 -1.33014830E+00  6.14361512E-01
  0.00000000E+00  0.00000000E+00  0.00000000E+00  0.00000000E+00  0.00000000E+00
  0.00000000E+00  0.00000000E+00  0.00000000E+00  0.00000000E+00  0.00000000E+00
  0.00000000E+00 -7.74178304E-02  0.00000000E+00  0.00000000E+00 -1.21737947E+00
  0.00000000E+00  0.00000000E+00  1.25887985E+00  0.00000000E+00  0.00000000E+00
 -4.62434828E-01  0.00000000E+00  0.00000000E+00  0.00000000E+00  0.00000000E+00
  0.00000000E+00  0.00000000E+00  6.59779203E-03  1.59795508E-01 -2.12079660E-01
 -4.60196149E-02  2.78442562E-05  2.20044157E-04  1.01213388E-03  3.56738072E-03
  5.52732061E-03 -7.83957963E-02  2.82753308E-01  0.00000000E+00  0.00000000E+00
 -7.74331811E-02  0.00000000E+00  0.00000000E+00 -1.21735588E+00  0.00000000E+00
  0.00000000E+00  1.27374108E+00  0.00000000E+00  0.00000000E+00 -5.85129582E-01
  6.59779203E-03  1.59795508E-01 -2.12079660E-01 -4.60196149E-02 -7.70669317E-03
 -1.67347665E-01  1.48534870E-01  2.01163653E-01  0.00000000E+00  0.00000000E+00
  0.00000000E+00  0.00000000E+00  0.00000000E+00  0.00000000E+00  0.00000000E+00
  0.00000000E+00 -7.76831734E-02  0.00000000E+00  0.00000000E+00 -1.22444337E+00
  0.00000000E+00  0.00000000E+00  1.31810505E+00  0.00000000E+00  0.00000000E+00
 -6.70652295E-01  0.00000000E+00  7.70669317E-03  1.67347665E-01 -1.48534870E-01
 -2.01163653E-01  7.38416587E-02 -4.15793679E-02 -1.59731937E-02 -1.29358957E-01
 -3.03673702E-03 -5.33693245E-02 -3.30021873E-02 -1.44339938E+00  1.90478529E+00
 -1.01667971E+00  7.14143302E-01  0.00000000E+00  0.00000000E+00 -3.35452795E-03
  0.00000000E+00  0.00000000E+00 -5.76721599E-03  0.00000000E+00  0.00000000E+00
  3.02184475E-02  0.00000000E+00  0.00000000E+00 -1.03554475E-01  7.38416587E-02
 -4.15793679E-02 -1.59731937E-02 -1.29358957E-01  8.90468273E-01 -7.51133243E-01
  4.94402670E-01 -1.02246292E-01  2.85357892E-04  4.74127843E-03  3.90333601E-03
  1.34396243E-01 -1.93371443E-01  8.92740028E-02 -1.99015899E-01  0.00000000E+00
  0.00000000E+00  2.41131686E-02  0.00000000E+00  0.00000000E+00  3.59060717E-02
  0.00000000E+00  0.00000000E+00 -7.50138410E-02  0.00000000E+00  0.00000000E+00
  1.47222531E-01  8.90468273E-01 -7.51133243E-01  4.94402670E-01 -1.02246292E-01
  8.95428391E-01 -7.68569124E-01  4.88197396E-01 -1.79446980E-01  0.00000000E+00
  0.00000000E+00  0.00000000E+00  0.00000000E+00  0.00000000E+00  0.00000000E+00
  0.00000000E+00  0.00000000E+00 -2.56649839E-02  0.00000000E+00  0.00000000E+00
 -3.91238067E-02  0.00000000E+00  0.00000000E+00  6.67224407E-02  0.00000000E+00
  0.00000000E+00 -1.04975052E-01  0.00000000E+00 -8.95428391E-01  7.68569124E-01
 -4.88197396E-01  1.79446980E-01  0.00000000E+00  0.00000000E+00  0.00000000E+00
  0.00000000E+00  0.00000000E+00  0.00000000E+00  0.00000000E+00  0.00000000E+00
  0.00000000E+00  0.00000000E+00  0.00000000E+00  1.20784822E+00  0.00000000E+00
  0.00000000E+00 -9.60446387E-01  0.00000000E+00  0.00000000E+00  4.70515998E-01
  0.00000000E+00  0.00000000E+00 -1.48858963E-01  0.00000000E+00  0.00000000E+00
  0.00000000E+00  0.00000000E+00  0.00000000E+00  0.00000000E+00 -2.91712912E-02
  5.56140432E-02 -5.87736108E-02 -1.85280206E-02 -1.38845157E-05 -3.16596830E-04
  3.34093486E-05 -1.06530527E-02  1.98394906E-02 -3.70273568E-02  9.26127265E-02
  0.00000000E+00  0.00000000E+00  1.20858700E+00  0.00000000E+00  0.00000000E+00
 -9.68145636E-01  0.00000000E+00  0.00000000E+00  4.85283105E-01  0.00000000E+00
  0.00000000E+00 -1.89418151E-01 -2.91712912E-02  5.56140432E-02 -5.87736108E-02
 -1.85280206E-02  3.18390835E-02 -5.91517915E-02  3.94643558E-02  7.22429225E-02
  0.00000000E+00  0.00000000E+00  0.00000000E+00  0.00000000E+00  0.00000000E+00
  0.00000000E+00  0.00000000E+00  0.00000000E+00  1.20980259E+00  0.00000000E+00
  0.00000000E+00 -9.77487007E-01  0.00000000E+00  0.00000000E+00  5.06972974E-01
  0.00000000E+00  0.00000000E+00 -2.21207561E-01  0.00000000E+00 -3.18390835E-02
  5.91517915E-02 -3.94643558E-02 -7.22429225E-02  6.19773264E-03 -1.04621324E-02
  2.08761547E-02  4.04505977E-02 -1.96097435E-02  3.68152775E-02 -1.74245028E+00
  2.25293541E+00 -1.11361801E+00  3.51015210E-01 -2.45298965E-01  0.00000000E+00
  0.00000000E+00 -1.84425250E-03  0.00000000E+00  0.00000000E+00  6.23360127E-03
  0.00000000E+00  0.00000000E+00 -1.44322355E-02  0.00000000E+00  0.00000000E+00
  3.99639945E-02  6.19773264E-03 -1.04621324E-02  2.08761547E-02  4.04505977E-02
 -2.04368288E-03  3.60166348E-03 -7.87389414E-03 -1.60920789E-02  3.58364835E-02
 -1.55797553E+00  1.74239456E+00 -1.09077872E+00  4.46068650E-01 -1.37424651E-01
  9.65816019E-02  0.00000000E+00  0.00000000E+00  6.69176750E-04  0.00000000E+00
  0.00000000E+00 -2.38741207E-03  0.00000000E+00  0.00000000E+00  5.63520406E-03
  0.00000000E+00  0.00000000E+00 -1.57030963E-02 -2.04368288E-03  3.60166348E-03
 -7.87389414E-03 -1.60920789E-02 -6.89214858E-04  1.21823765E-03 -2.72403926E-03
 -5.63477947E-03  1.26398354E+00 -1.03662362E+00  6.46863783E-01 -3.70285318E-01
  1.52741529E-01 -4.78507823E-02  3.37276629E-02  0.00000000E+00  0.00000000E+00
  2.29180512E-04  0.00000000E+00  0.00000000E+00 -8.27994561E-04  0.00000000E+00
  0.00000000E+00  1.96484906E-03  0.00000000E+00  0.00000000E+00 -5.48459532E-03
 -6.89214858E-04  1.21823765E-03 -2.72403926E-03 -5.63477947E-03
Total SCF Density                          R   N=         378
  4.82131014E-04  3.81599844E-03  3.02183087E-02  8.57704299E-03  6.77401012E-02
  1.58490761E-01  2.82129216E-03  2.21915032E-02  5.44337974E-02  1.98165984E-02
 -8.18512182E-06 -9.24941074E-05 -6.94036031E-05  5.59744579E-05  6.27308059E-05
 -6.46842541E-05 -7.19615180E-04 -5.37893411E-04  4.33790729E-04  4.67262714E-04
  3.48108089E-03 -2.88747188E-04 -3.21282668E-03 -2.45798912E-03  1.88582670E-03
  2.09181029E-03  1.55828983E-02  6.97578979E-02 -1.00797038E-03 -1.04438573E-02
 -8.09369826E-03  5.78959022E-03  5.38304795E-03  4.01382106E-02  1.79620096E-01
  4.64896259E-01 -1.31246156E-03 -1.28304785E-02 -1.11257419E-02  5.77970229E-03
  5.18787048E-03  3.87147706E-02  1.73201113E-01  4.50341818E-01  4.38078351E-01
  5.56196310E-03  4.59430436E-02  4.25923105E-02 -1.51354478E-02 -1.08170845E-03
 -8.74049255E-03 -3.80223163E-02 -1.41724753E-01 -1.74749373E-01  8.25509828E-01
  1.48137169E-03  1.32160144E-02 -6.84826211E-03 -2.20405245E-02 -1.15217272E-03
 -9.03131939E-03 -3.96385724E-02 -1.30524677E-01 -1.49216323E-01  5.37434151E-01
  3.79936806E-01 -3.00926554E-36 -4.81482486E-35 -9.62964972E-35 -4.81482486E-35
  0.00000000E+00  0.00000000E+00  0.00000000E+00  0.00000000E+00  0.00000000E+00
  0.00000000E+00  0.00000000E+00  3.27741529E-03  7.34475316E-04  5.78961722E-03
  1.48459050E-02  5.30246778E-03  0.00000000E+00  0.00000000E+00  0.00000000E+00
  0.00000000E+00  0.00000000E+00  0.00000000E+00  0.00000000E+00 -3.61111865E-35
  1.97876095E-03 -5.84192983E-04 -4.58163932E-03 -9.92398942E-03 -3.72662012E-03
 -2.46325450E-05 -1.93549458E-04 -8.30802171E-04 -2.68678200E-03 -2.65415671E-03
  8.46732092E-03  1.36142567E-02  0.00000000E+00  0.00000000E+00  2.48166842E-03
 -2.40741243E-35 -1.92592994E-34 -3.85185989E-34 -1.92592994E-34  0.00000000E+00
  0.00000000E+00  0.00000000E+00  0.00000000E+00  0.00000000E+00  0.00000000E+00
  0.00000000E+00  1.73970197E-02 -1.44444746E-34  0.00000000E+00  9.23460311E-02
  3.68202039E-03  2.90241050E-02  7.44244547E-02  2.65819614E-02  0.00000000E+00
  0.00000000E+00  0.00000000E+00  0.00000000E+00  0.00000000E+00  0.00000000E+00
  0.00000000E+00 -1.44444746E-34  9.91978627E-03  0.00000000E+00 -7.70371978E-34
  4.97291802E-02 -2.96863616E-03 -2.32760902E-02 -5.09365498E-02 -1.94048228E-02
 -9.73629047E-05 -7.84602110E-04 -3.31612948E-03 -1.18406612E-02 -1.21532432E-02
  5.18874238E-02  7.53998826E-02  0.00000000E+00  0.00000000E+00  1.29134642E-02
  0.00000000E+00  0.00000000E+00  6.72995939E-02 -4.81482486E-35 -3.85185989E-34
 -7.70371978E-34 -3.85185989E-34  0.00000000E+00  0.00000000E+00  0.00000000E+00
  0.00000000E+00  0.00000000E+00  0.00000000E+00  0.00000000E+00  3.77313731E-02
 -3.85185989E-34  0.00000000E+00  2.00283877E-01 -1.54074396E-33  0.00000000E+00
  4.34383925E-01  8.91751817E-03  7.02937398E-02  1.80249253E-01  6.43790903E-02
  0.00000000E+00  0.00000000E+00  0.00000000E+00  0.00000000E+00  0.00000000E+00
  0.00000000E+00  0.00000000E+00 -3.85185989E-34  2.40248192E-02  0.00000000E+00
 -1.54074396E-33  1.20439547E-01  0.00000000E+00 -4.62223187E-33  2.91693617E-01
 -7.06449332E-03 -5.55439472E-02 -1.18179591E-01 -4.31893993E-02 -1.11411892E-04
 -9.26250134E-04 -3.76292969E-03 -1.47226452E-02 -1.37225965E-02  7.04978300E-02
  1.40104301E-01  0.00000000E+00  0.00000000E+00  2.88418629E-02  0.00000000E+00
  0.00000000E+00  1.49898399E-01  0.00000000E+00  0.00000000E+00  3.36496568E-01
 -4.81482486E-35 -1.92592994E-34 -7.70371978E-34 -1.92592994E-34  0.00000000E+00
  0.00000000E+00  0.00000000E+00  0.00000000E+00  0.00000000E+00  0.00000000E+00
  0.00000000E+00  4.20649647E-02 -4.81482486E-34  0.00000000E+00  2.23287242E-01
 -3.08148791E-33  0.00000000E+00  4.84274570E-01 -3.08148791E-33  0.00000000E+00
  5.39895344E-01  6.08157351E-03  4.79389598E-02  1.22926476E-01  4.39052843E-02
  0.00000000E+00  0.00000000E+00  0.00000000E+00  0.00000000E+00  0.00000000E+00
  0.00000000E+00  0.00000000E+00 -4.81482486E-34  1.63844582E-02  0.00000000E+00
 -3.08148791E-33  8.21374225E-02  0.00000000E+00 -3.08148791E-33  1.98929359E-01
  0.00000000E+00 -4.62223187E-33  1.35665944E-01 -6.48313051E-03 -5.08047564E-02
 -1.12336058E-01 -4.34129184E-02 -1.87436435E-04 -1.54307668E-03 -6.44737667E-03
 -2.49020063E-02 -2.64833656E-02  1.32484868E-01  1.78378357E-01  0.00000000E+00
  0.00000000E+00  2.88657575E-02  0.00000000E+00  0.00000000E+00  1.50632158E-01
  0.00000000E+00  0.00000000E+00  3.34609428E-01  0.00000000E+00  0.00000000E+00
  3.37533259E-01 -6.31132124E-05 -4.81974938E-04 -2.44394545E-03 -1.11504154E-03
 -8.18512182E-06 -6.46842541E-05 -2.88747188E-04 -1.00797038E-03 -1.31246156E-03
  5.56196310E-03  1.48137169E-03  3.00926554E-36 -7.34475316E-04 -5.84192983E-04
  2.40741243E-35 -3.68202039E-03 -2.96863616E-03  4.81482486E-35 -8.91751817E-03
 -7.06449332E-03  4.81482486E-35 -6.08157351E-03 -6.48313051E-03  4.82131014E-04
 -4.81974938E-04 -3.66114263E-03 -1.91345739E-02 -8.83726635E-03 -9.24941074E-05
 -7.19615180E-04 -3.21282668E-03 -1.04438573E-02 -1.28304785E-02  4.59430436E-02
  1.32160144E-02  4.81482486E-35 -5.78961722E-03 -4.58163932E-03  1.92592994E-34
 -2.90241050E-02 -2.32760902E-02  3.85185989E-34 -7.02937398E-02 -5.55439472E-02
  1.92592994E-34 -4.79389598E-02 -5.08047564E-02  3.81599844E-03  3.02183087E-02
 -2.44394545E-03 -1.91345739E-02 -6.42758089E-02 -2.51310768E-02 -6.94036031E-05
 -5.37893411E-04 -2.45798912E-03 -8.09369826E-03 -1.11257419E-02  4.25923105E-02
 -6.84826211E-03  9.62964972E-35 -1.48459050E-02 -9.92398942E-03  3.85185989E-34
 -7.44244547E-02 -5.09365498E-02  7.70371978E-34 -1.80249253E-01 -1.18179591E-01
  7.70371978E-34 -1.22926476E-01 -1.12336058E-01  8.57704299E-03  6.77401012E-02
  1.58490761E-01 -1.11504154E-03 -8.83726635E-03 -2.51310768E-02 -8.60135128E-03
  5.59744579E-05  4.33790729E-04  1.88582670E-03  5.78959022E-03  5.77970229E-03
 -1.51354478E-02 -2.20405245E-02  4.81482486E-35 -5.30246778E-03 -3.72662012E-03
  1.92592994E-34 -2.65819614E-02 -1.94048228E-02  3.85185989E-34 -6.43790903E-02
 -4.31893993E-02  1.92592994E-34 -4.39052843E-02 -4.34129184E-02  2.82129216E-03
  2.21915032E-02  5.44337974E-02  1.98165984E-02
QEq coupling tensors                       R   N=          18
  2.63375745E-01 -2.79722949E-18 -2.37922787E-01  3.94543823E-19  3.12637997E-01
 -2.54529580E-02  2.22476948E+00  2.79165693E-18 -1.93567185E+00 -2.70810348E-19
 -2.77555756E-17 -2.89097625E-01  2.63375745E-01 -6.34820227E-17 -2.37922787E-01
 -4.90696829E-17 -3.12637997E-01 -2.54529580E-02
Mulliken Charges                           R   N=           3
  3.58054462E-01 -7.16108924E-01  3.58054462E-01
ONIOM Charges                              I   N=          16
           0           0           0           0           0           0
           0           0           0           0           0           0
           0           0           0           0
ONIOM Multiplicities                       I   N=          16
           1           0           0           0           0           0
           0           0           0           0           0           0
           0           0           0           0
Atom Layers                                I   N=           3
           1           1           1
Atom Modifiers                             I   N=           3
           0           0           0
Force Field                                I                0
Int Atom Modified Types                    I   N=           3
           0           0           0
Link Atoms                                 I   N=           3
           0           0           0
Atom Modified MM Charges                   R   N=           3
  0.00000000E+00  0.00000000E+00  0.00000000E+00
Link Distances                             R   N=          12
  0.00000000E+00  0.00000000E+00  0.00000000E+00  0.00000000E+00  0.00000000E+00
  0.00000000E+00  0.00000000E+00  0.00000000E+00  0.00000000E+00  0.00000000E+00
  0.00000000E+00  0.00000000E+00
Cartesian Gradient                         R   N=           9
 -0.00000000E+00  0.00000000E+00  0.00000000E+00 -0.00000000E+00  0.00000000E+00
  0.00000000E+00 -0.00000000E+00  0.00000000E+00  0.00000000E+00